# vtk DataFile Version 2.0
test
ASCII
DATASET UNSTRUCTURED_GRID
POINTS 6400 float
0.0 0.0 0.0
0.0 4.165 0.0
0.0 8.33 0.0
0.0 12.495000000000001 0.0
0.0 16.66 0.0
0.0 20.825 0.0
0.0 24.990000000000002 0.0
0.0 29.155 0.0
0.0 33.32 0.0
0.0 37.485 0.0
0.0 41.65 0.0
0.0 45.815 0.0
0.0 49.980000000000004 0.0
0.0 54.145 0.0
0.0 58.31 0.0
0.0 62.475 0.0
0.0 66.64 0.0
0.0 70.805 0.0
0.0 74.97 0.0
0.0 79.135 0.0
0.0 83.3 0.0
0.0 87.465 0.0
0.0 91.63 0.0
0.0 95.795 0.0
0.0 99.96000000000001 0.0
0.0 104.125 0.0
0.0 108.29 0.0
0.0 112.455 0.0
0.0 116.62 0.0
0.0 120.785 0.0
0.0 124.95 0.0
0.0 129.115 0.0
0.0 133.28 0.0
0.0 137.445 0.0
0.0 141.61 0.0
0.0 145.775 0.0
0.0 149.94 0.0
0.0 154.105 0.0
0.0 158.27 0.0
0.0 162.435 0.0
0.0 166.6 0.0
0.0 170.76500000000001 0.0
0.0 174.93 0.0
0.0 179.095 0.0
0.0 183.26 0.0
0.0 187.425 0.0
0.0 191.59 0.0
0.0 195.755 0.0
0.0 199.92000000000002 0.0
0.0 204.085 0.0
0.0 208.25 0.0
0.0 212.415 0.0
0.0 216.58 0.0
0.0 220.745 0.0
0.0 224.91 0.0
0.0 229.075 0.0
0.0 233.24 0.0
0.0 237.405 0.0
0.0 241.57 0.0
0.0 245.735 0.0
0.0 249.9 0.0
0.0 254.065 0.0
0.0 258.23 0.0
0.0 262.395 0.0
0.0 266.56 0.0
0.0 270.725 0.0
0.0 274.89 0.0
0.0 279.055 0.0
0.0 283.22 0.0
0.0 287.385 0.0
0.0 291.55 0.0
0.0 295.715 0.0
0.0 299.88 0.0
0.0 304.045 0.0
0.0 308.21 0.0
0.0 312.375 0.0
0.0 316.54 0.0
0.0 320.705 0.0
0.0 324.87 0.0
0.0 329.035 0.0
4.165 0.0 0.0
4.165 4.165 0.0
4.165 8.33 0.0
4.165 12.495000000000001 0.0
4.165 16.66 0.0
4.165 20.825 0.0
4.165 24.990000000000002 0.0
4.165 29.155 0.0
4.165 33.32 0.0
4.165 37.485 0.0
4.165 41.65 0.0
4.165 45.815 0.0
4.165 49.980000000000004 0.0
4.165 54.145 0.0
4.165 58.31 0.0
4.165 62.475 0.0
4.165 66.64 0.0
4.165 70.805 0.0
4.165 74.97 0.0
4.165 79.135 0.0
4.165 83.3 0.0
4.165 87.465 0.0
4.165 91.63 0.0
4.165 95.795 0.0
4.165 99.96000000000001 0.0
4.165 104.125 0.0
4.165 108.29 0.0
4.165 112.455 0.0
4.165 116.62 0.0
4.165 120.785 0.0
4.165 124.95 0.0
4.165 129.115 0.0
4.165 133.28 0.0
4.165 137.445 0.0
4.165 141.61 0.0
4.165 145.775 0.0
4.165 149.94 0.0
4.165 154.105 0.0
4.165 158.27 0.0
4.165 162.435 0.0
4.165 166.6 0.0
4.165 170.76500000000001 0.0
4.165 174.93 0.0
4.165 179.095 0.0
4.165 183.26 0.0
4.165 187.425 0.0
4.165 191.59 0.0
4.165 195.755 0.0
4.165 199.92000000000002 0.0
4.165 204.085 0.0
4.165 208.25 0.0
4.165 212.415 0.0
4.165 216.58 0.0
4.165 220.745 0.0
4.165 224.91 0.0
4.165 229.075 0.0
4.165 233.24 0.0
4.165 237.405 0.0
4.165 241.57 0.0
4.165 245.735 0.0
4.165 249.9 0.0
4.165 254.065 0.0
4.165 258.23 0.0
4.165 262.395 0.0
4.165 266.56 0.0
4.165 270.725 0.0
4.165 274.89 0.0
4.165 279.055 0.0
4.165 283.22 0.0
4.165 287.385 0.0
4.165 291.55 0.0
4.165 295.715 0.0
4.165 299.88 0.0
4.165 304.045 0.0
4.165 308.21 0.0
4.165 312.375 0.0
4.165 316.54 0.0
4.165 320.705 0.0
4.165 324.87 0.0
4.165 329.035 0.0
8.33 0.0 0.0
8.33 4.165 0.0
8.33 8.33 0.0
8.33 12.495000000000001 0.0
8.33 16.66 0.0
8.33 20.825 0.0
8.33 24.990000000000002 0.0
8.33 29.155 0.0
8.33 33.32 0.0
8.33 37.485 0.0
8.33 41.65 0.0
8.33 45.815 0.0
8.33 49.980000000000004 0.0
8.33 54.145 0.0
8.33 58.31 0.0
8.33 62.475 0.0
8.33 66.64 0.0
8.33 70.805 0.0
8.33 74.97 0.0
8.33 79.135 0.0
8.33 83.3 0.0
8.33 87.465 0.0
8.33 91.63 0.0
8.33 95.795 0.0
8.33 99.96000000000001 0.0
8.33 104.125 0.0
8.33 108.29 0.0
8.33 112.455 0.0
8.33 116.62 0.0
8.33 120.785 0.0
8.33 124.95 0.0
8.33 129.115 0.0
8.33 133.28 0.0
8.33 137.445 0.0
8.33 141.61 0.0
8.33 145.775 0.0
8.33 149.94 0.0
8.33 154.105 0.0
8.33 158.27 0.0
8.33 162.435 0.0
8.33 166.6 0.0
8.33 170.76500000000001 0.0
8.33 174.93 0.0
8.33 179.095 0.0
8.33 183.26 0.0
8.33 187.425 0.0
8.33 191.59 0.0
8.33 195.755 0.0
8.33 199.92000000000002 0.0
8.33 204.085 0.0
8.33 208.25 0.0
8.33 212.415 0.0
8.33 216.58 0.0
8.33 220.745 0.0
8.33 224.91 0.0
8.33 229.075 0.0
8.33 233.24 0.0
8.33 237.405 0.0
8.33 241.57 0.0
8.33 245.735 0.0
8.33 249.9 0.0
8.33 254.065 0.0
8.33 258.23 0.0
8.33 262.395 0.0
8.33 266.56 0.0
8.33 270.725 0.0
8.33 274.89 0.0
8.33 279.055 0.0
8.33 283.22 0.0
8.33 287.385 0.0
8.33 291.55 0.0
8.33 295.715 0.0
8.33 299.88 0.0
8.33 304.045 0.0
8.33 308.21 0.0
8.33 312.375 0.0
8.33 316.54 0.0
8.33 320.705 0.0
8.33 324.87 0.0
8.33 329.035 0.0
12.495000000000001 0.0 0.0
12.495000000000001 4.165 0.0
12.495000000000001 8.33 0.0
12.495000000000001 12.495000000000001 0.0
12.495000000000001 16.66 0.0
12.495000000000001 20.825 0.0
12.495000000000001 24.990000000000002 0.0
12.495000000000001 29.155 0.0
12.495000000000001 33.32 0.0
12.495000000000001 37.485 0.0
12.495000000000001 41.65 0.0
12.495000000000001 45.815 0.0
12.495000000000001 49.980000000000004 0.0
12.495000000000001 54.145 0.0
12.495000000000001 58.31 0.0
12.495000000000001 62.475 0.0
12.495000000000001 66.64 0.0
12.495000000000001 70.805 0.0
12.495000000000001 74.97 0.0
12.495000000000001 79.135 0.0
12.495000000000001 83.3 0.0
12.495000000000001 87.465 0.0
12.495000000000001 91.63 0.0
12.495000000000001 95.795 0.0
12.495000000000001 99.96000000000001 0.0
12.495000000000001 104.125 0.0
12.495000000000001 108.29 0.0
12.495000000000001 112.455 0.0
12.495000000000001 116.62 0.0
12.495000000000001 120.785 0.0
12.495000000000001 124.95 0.0
12.495000000000001 129.115 0.0
12.495000000000001 133.28 0.0
12.495000000000001 137.445 0.0
12.495000000000001 141.61 0.0
12.495000000000001 145.775 0.0
12.495000000000001 149.94 0.0
12.495000000000001 154.105 0.0
12.495000000000001 158.27 0.0
12.495000000000001 162.435 0.0
12.495000000000001 166.6 0.0
12.495000000000001 170.76500000000001 0.0
12.495000000000001 174.93 0.0
12.495000000000001 179.095 0.0
12.495000000000001 183.26 0.0
12.495000000000001 187.425 0.0
12.495000000000001 191.59 0.0
12.495000000000001 195.755 0.0
12.495000000000001 199.92000000000002 0.0
12.495000000000001 204.085 0.0
12.495000000000001 208.25 0.0
12.495000000000001 212.415 0.0
12.495000000000001 216.58 0.0
12.495000000000001 220.745 0.0
12.495000000000001 224.91 0.0
12.495000000000001 229.075 0.0
12.495000000000001 233.24 0.0
12.495000000000001 237.405 0.0
12.495000000000001 241.57 0.0
12.495000000000001 245.735 0.0
12.495000000000001 249.9 0.0
12.495000000000001 254.065 0.0
12.495000000000001 258.23 0.0
12.495000000000001 262.395 0.0
12.495000000000001 266.56 0.0
12.495000000000001 270.725 0.0
12.495000000000001 274.89 0.0
12.495000000000001 279.055 0.0
12.495000000000001 283.22 0.0
12.495000000000001 287.385 0.0
12.495000000000001 291.55 0.0
12.495000000000001 295.715 0.0
12.495000000000001 299.88 0.0
12.495000000000001 304.045 0.0
12.495000000000001 308.21 0.0
12.495000000000001 312.375 0.0
12.495000000000001 316.54 0.0
12.495000000000001 320.705 0.0
12.495000000000001 324.87 0.0
12.495000000000001 329.035 0.0
16.66 0.0 0.0
16.66 4.165 0.0
16.66 8.33 0.0
16.66 12.495000000000001 0.0
16.66 16.66 0.0
16.66 20.825 0.0
16.66 24.990000000000002 0.0
16.66 29.155 0.0
16.66 33.32 0.0
16.66 37.485 0.0
16.66 41.65 0.0
16.66 45.815 0.0
16.66 49.980000000000004 0.0
16.66 54.145 0.0
16.66 58.31 0.0
16.66 62.475 0.0
16.66 66.64 0.0
16.66 70.805 0.0
16.66 74.97 0.0
16.66 79.135 0.0
16.66 83.3 0.0
16.66 87.465 0.0
16.66 91.63 0.0
16.66 95.795 0.0
16.66 99.96000000000001 0.0
16.66 104.125 0.0
16.66 108.29 0.0
16.66 112.455 0.0
16.66 116.62 0.0
16.66 120.785 0.0
16.66 124.95 0.0
16.66 129.115 0.0
16.66 133.28 0.0
16.66 137.445 0.0
16.66 141.61 0.0
16.66 145.775 0.0
16.66 149.94 0.0
16.66 154.105 0.0
16.66 158.27 0.0
16.66 162.435 0.0
16.66 166.6 0.0
16.66 170.76500000000001 0.0
16.66 174.93 0.0
16.66 179.095 0.0
16.66 183.26 0.0
16.66 187.425 0.0
16.66 191.59 0.0
16.66 195.755 0.0
16.66 199.92000000000002 0.0
16.66 204.085 0.0
16.66 208.25 0.0
16.66 212.415 0.0
16.66 216.58 0.0
16.66 220.745 0.0
16.66 224.91 0.0
16.66 229.075 0.0
16.66 233.24 0.0
16.66 237.405 0.0
16.66 241.57 0.0
16.66 245.735 0.0
16.66 249.9 0.0
16.66 254.065 0.0
16.66 258.23 0.0
16.66 262.395 0.0
16.66 266.56 0.0
16.66 270.725 0.0
16.66 274.89 0.0
16.66 279.055 0.0
16.66 283.22 0.0
16.66 287.385 0.0
16.66 291.55 0.0
16.66 295.715 0.0
16.66 299.88 0.0
16.66 304.045 0.0
16.66 308.21 0.0
16.66 312.375 0.0
16.66 316.54 0.0
16.66 320.705 0.0
16.66 324.87 0.0
16.66 329.035 0.0
20.825 0.0 0.0
20.825 4.165 0.0
20.825 8.33 0.0
20.825 12.495000000000001 0.0
20.825 16.66 0.0
20.825 20.825 0.0
20.825 24.990000000000002 0.0
20.825 29.155 0.0
20.825 33.32 0.0
20.825 37.485 0.0
20.825 41.65 0.0
20.825 45.815 0.0
20.825 49.980000000000004 0.0
20.825 54.145 0.0
20.825 58.31 0.0
20.825 62.475 0.0
20.825 66.64 0.0
20.825 70.805 0.0
20.825 74.97 0.0
20.825 79.135 0.0
20.825 83.3 0.0
20.825 87.465 0.0
20.825 91.63 0.0
20.825 95.795 0.0
20.825 99.96000000000001 0.0
20.825 104.125 0.0
20.825 108.29 0.0
20.825 112.455 0.0
20.825 116.62 0.0
20.825 120.785 0.0
20.825 124.95 0.0
20.825 129.115 0.0
20.825 133.28 0.0
20.825 137.445 0.0
20.825 141.61 0.0
20.825 145.775 0.0
20.825 149.94 0.0
20.825 154.105 0.0
20.825 158.27 0.0
20.825 162.435 0.0
20.825 166.6 0.0
20.825 170.76500000000001 0.0
20.825 174.93 0.0
20.825 179.095 0.0
20.825 183.26 0.0
20.825 187.425 0.0
20.825 191.59 0.0
20.825 195.755 0.0
20.825 199.92000000000002 0.0
20.825 204.085 0.0
20.825 208.25 0.0
20.825 212.415 0.0
20.825 216.58 0.0
20.825 220.745 0.0
20.825 224.91 0.0
20.825 229.075 0.0
20.825 233.24 0.0
20.825 237.405 0.0
20.825 241.57 0.0
20.825 245.735 0.0
20.825 249.9 0.0
20.825 254.065 0.0
20.825 258.23 0.0
20.825 262.395 0.0
20.825 266.56 0.0
20.825 270.725 0.0
20.825 274.89 0.0
20.825 279.055 0.0
20.825 283.22 0.0
20.825 287.385 0.0
20.825 291.55 0.0
20.825 295.715 0.0
20.825 299.88 0.0
20.825 304.045 0.0
20.825 308.21 0.0
20.825 312.375 0.0
20.825 316.54 0.0
20.825 320.705 0.0
20.825 324.87 0.0
20.825 329.035 0.0
24.990000000000002 0.0 0.0
24.990000000000002 4.165 0.0
24.990000000000002 8.33 0.0
24.990000000000002 12.495000000000001 0.0
24.990000000000002 16.66 0.0
24.990000000000002 20.825 0.0
24.990000000000002 24.990000000000002 0.0
24.990000000000002 29.155 0.0
24.990000000000002 33.32 0.0
24.990000000000002 37.485 0.0
24.990000000000002 41.65 0.0
24.990000000000002 45.815 0.0
[...]
POINT_DATA 6400
VECTORS vector float
0.0 0.0 -0.2
-0.09635073482034306 0.0 -0.17526133600877272
-0.16886558510040306 0.0 -0.10716535899579932
-0.1996053456856543 0.0 -0.01255810390586275
0.18096541049320392 0.0 -0.08515585831301453
0.11755705045849466 0.0 -0.16180339887498948
0.025066646712860907 0.0 -0.1984229402628956
-0.07362491053693568 0.0 -0.18595529717765025
-0.15410264855515787 0.0 -0.1274847979497379
-0.19645745014573773 0.0 -0.037476262917144954
0.19021130325903074 0.0 -0.06180339887498945
0.1369094211857378 0.0 -0.14579372548428227
0.04973797743297107 0.0 -0.19371663222572622
-0.04973797743297098 0.0 -0.19371663222572622
-0.13690942118573787 0.0 -0.14579372548428218
-0.19021130325903068 0.0 -0.06180339887498955
0.19645745014573773 0.0 -0.037476262917145
0.15410264855515773 0.0 -0.1274847979497381
0.0736249105369356 0.0 -0.18595529717765027
-0.025066646712860637 0.0 -0.1984229402628956
-0.11755705045849457 0.0 -0.1618033988749895
-0.1809654104932038 0.0 -0.08515585831301481
0.19960534568565436 0.0 -0.012558103905862587
0.16886558510040306 0.0 -0.10716535899579929
0.09635073482034326 0.0 -0.17526133600877264
9.797174393178826e-17 0.0 -0.2
-0.0963507348203431 0.0 -0.1752613360087727
-0.16886558510040311 0.0 -0.10716535899579918
-0.19960534568565436 0.0 -0.012558103905862386
0.18096541049320403 0.0 -0.08515585831301431
0.11755705045849472 0.0 -0.1618033988749894
0.02506664671286083 0.0 -0.1984229402628956
-0.07362491053693575 0.0 -0.18595529717765025
-0.15410264855515804 0.0 -0.1274847979497377
-0.19645745014573784 0.0 -0.037476262917144496
0.19021130325903077 0.0 -0.06180339887498936
0.13690942118573773 0.0 -0.14579372548428232
0.04973797743297082 0.0 -0.19371663222572627
-0.049737977432970544 0.0 -0.19371663222572635
-0.1369094211857375 0.0 -0.14579372548428252
-0.19021130325903068 0.0 -0.061803398874989625
0.19645745014573776 0.0 -0.03747626291714492
0.15410264855515823 0.0 -0.1274847979497375
0.07362491053693601 0.0 -0.18595529717765014
-0.025066646712860536 0.0 -0.19842294026289561
-0.11755705045849447 0.0 -0.16180339887498962
-0.18096541049320392 0.0 -0.08515585831301457
0.1996053456856543 0.0 -0.012558103905862858
0.16886558510040328 0.0 -0.10716535899579893
0.09635073482034334 0.0 -0.17526133600877258
1.9594348786357652e-16 0.0 -0.2
-0.09635073482034301 0.0 -0.17526133600877275
-0.16886558510040306 0.0 -0.10716535899579929
-0.19960534568565436 0.0 -0.01255810390586247
0.18096541049320375 0.0 -0.08515585831301485
0.11755705045849424 0.0 -0.1618033988749898
0.02506664671286022 0.0 -0.19842294026289564
-0.07362491053693564 0.0 -0.18595529717765025
-0.15410264855515754 0.0 -0.12748479794973835
-0.1964574501457377 0.0 -0.03747626291714531
0.19021130325903082 0.0 -0.06180339887498927
0.13690942118573782 0.0 -0.14579372548428224
0.049737977432970926 0.0 -0.19371663222572624
-0.04973797743297045 0.0 -0.19371663222572638
-0.13690942118573798 0.0 -0.14579372548428207
-0.19021130325903066 0.0 -0.06180339887498975
0.19645745014573765 0.0 -0.0374762629171455
0.15410264855515782 0.0 -0.12748479794973797
0.07362491053693478 0.0 -0.1859552971776506
-0.025066646712861143 0.0 -0.19842294026289553
-0.1175570504584944 0.0 -0.16180339887498965
-0.18096541049320358 0.0 -0.08515585831301531
0.1996053456856543 0.0 -0.012558103905862601
0.16886558510040334 0.0 -0.10716535899579885
0.09635073482034281 0.0 -0.17526133600877286
2.9391523179536476e-16 0.0 -0.2
-0.09635073482034229 0.0 -0.17526133600877314
-0.16886558510040298 0.0 -0.10716535899579933
-0.19960534568565427 0.0 -0.012558103905863255
0.1809654104932038 0.0 -0.08515585831301475
0.0 0.09635073482034306 -0.17526133600877272
-0.10524906812668595 0.10524906812668595 -0.13358617936346726
-0.14565064729331478 0.1359120602572927 -0.017714424056583158
-0.02589843729932839 0.17446907908481268 0.09428579632558733
0.1342868003560039 0.14715139114082812 0.017706590170492125
0.12458058249310527 0.11060001479616827 -0.11066758871849497
0.028536142424005553 0.09688315922037855 -0.17262485926145069
-0.08209507044442017 0.10125696233605841 -0.15168199295631551
-0.14646360861107555 0.1258932300387606 -0.05195484561645224
-0.0734926805283729 0.16856230326819532 0.07864843180684199
0.11044117954818822 0.15864394632942969 0.05133073302642293
0.1388262201387269 0.11744660850878363 -0.08326808963689668
0.05620151938168513 0.09849953372557049 -0.16473988914356863
-0.05620151938168504 0.09849953372557049 -0.16473988914356866
-0.1388262201387269 0.11744660850878363 -0.08326808963689657
-0.11044117954818833 0.1586439463294296 0.051330733026422784
0.07349268052837304 0.16856230326819532 0.07864843180684195
0.14646360861107552 0.1258932300387605 -0.05195484561645258
0.08209507044442008 0.10125696233605837 -0.15168199295631557
-0.028536142424005248 0.09688315922037853 -0.17262485926145074
-0.12458058249310522 0.11060001479616824 -0.11066758871849508
-0.13428680035600407 0.14715139114082798 0.017706590170491723
0.02589843729932801 0.1744690790848127 0.09428579632558738
0.14565064729331478 0.1359120602572927 -0.017714424056583144
0.10524906812668616 0.105249068126686 -0.13358617936346706
1.118007498549301e-16 0.09635073482034306 -0.17526133600877272
-0.10524906812668598 0.10524906812668595 -0.1335861793634672
-0.14565064729331476 0.13591206025729274 -0.017714424056582922
-0.025898437299327687 0.17446907908481274 0.09428579632558744
0.1342868003560037 0.14715139114082823 0.017706590170492486
0.12458058249310536 0.11060001479616831 -0.11066758871849486
0.028536142424005463 0.09688315922037853 -0.17262485926145069
-0.08209507044442024 0.10125696233605841 -0.15168199295631546
-0.1464636086110756 0.12589323003876068 -0.05195484561645191
-0.07349268052837216 0.16856230326819543 0.07864843180684239
0.11044117954818809 0.15864394632942969 0.05133073302642304
0.13882622013872684 0.11744660850878362 -0.08326808963689675
0.056201519381684856 0.09849953372557047 -0.16473988914356874
-0.056201519381684543 0.09849953372557045 -0.16473988914356885
-0.1388262201387267 0.11744660850878352 -0.08326808963689711
-0.11044117954818844 0.15864394632942957 0.05133073302642269
0.07349268052837286 0.16856230326819532 0.07864843180684203
0.14646360861107563 0.1258932300387608 -0.05195484561645152
0.0820950704444205 0.10125696233605844 -0.1516819929563153
-0.028536142424005137 0.09688315922037853 -0.17262485926145077
-0.12458058249310516 0.11060001479616824 -0.11066758871849519
-0.1342868003560039 0.1471513911408281 0.017706590170492083
0.02589843729932853 0.17446907908481268 0.0942857963255873
0.14565064729331473 0.1359120602572929 -0.017714424056582512
0.10524906812668622 0.105249068126686 -0.13358617936346698
2.236014997098602e-16 0.09635073482034306 -0.17526133600877272
-0.10524906812668589 0.10524906812668594 -0.13358617936346728
-0.14565064729331478 0.13591206025729272 -0.01771442405658306
-0.025898437299327882 0.1744690790848127 0.09428579632558741
0.13428680035600413 0.14715139114082795 0.01770659017049164
0.12458058249310494 0.11060001479616816 -0.1106675887184955
0.028536142424004776 0.09688315922037849 -0.17262485926145082
-0.08209507044442013 0.1012569623360584 -0.15168199295631554
-0.14646360861107546 0.12589323003876038 -0.05195484561645297
-0.07349268052837353 0.1685623032681952 0.07864843180684167
0.11044117954818798 0.15864394632942974 0.05133073302642316
0.1388262201387269 0.11744660850878363 -0.08326808963689666
0.05620151938168497 0.09849953372557047 -0.16473988914356866
-0.05620151938168443 0.09849953372557044 -0.16473988914356885
-0.138826220138727 0.1174466085087837 -0.08326808963689639
-0.11044117954818855 0.15864394632942955 0.05133073302642255
0.07349268052837392 0.1685623032681951 0.07864843180684147
0.14646360861107555 0.12589323003876057 -0.05195484561645233
0.08209507044441922 0.10125696233605828 -0.15168199295631613
-0.028536142424005817 0.09688315922037855 -0.17262485926145066
-0.1245805824931051 0.1106000147961682 -0.11066758871849525
-0.13428680035600446 0.14715139114082773 0.017706590170490956
0.025898437299328336 0.17446907908481268 0.09428579632558734
0.14565064729331467 0.13591206025729294 -0.017714424056582374
0.10524906812668569 0.10524906812668589 -0.13358617936346748
3.354022495647903e-16 0.09635073482034306 -0.17526133600877272
-0.1052490681266852 0.10524906812668577 -0.13358617936346795
-0.1456506472933148 0.1359120602572927 -0.0177144240565832
-0.025898437299329526 0.17446907908481263 0.09428579632558715
0.13428680035600404 0.14715139114082798 0.017706590170491778
0.0 0.16886558510040306 -0.10716535899579932
-0.1359120602572927 0.14565064729331478 -0.017714424056583158
-0.1177342109131595 0.1177342109131595 0.11080302866488508
-0.014861649959849272 0.10729175770489321 0.16812974183369642
0.09663927677944707 0.11348517729011898 0.13334903343847562
0.14432935602094163 0.13731371748702545 0.017719480254049017
0.04588103535563835 0.16693240910681573 -0.10014240552577801
-0.11657712279110771 0.15409039565939747 -0.05163259055361587
-0.13368578960253277 0.12314373303014847 0.08344897047745321
-0.0440641915213587 0.1083070179448768 0.1622588576610139
0.07169011993759249 0.11035860403280472 0.15060380214079663
0.14306770010335143 0.12970747345762257 0.05203464726869618
0.0860489318483707 0.1616166218501358 -0.08047141647507311
-0.08604893184837058 0.16161662185013584 -0.08047141647507321
-0.14306770010335143 0.12970747345762254 0.05203464726869628
-0.0716901199375926 0.11035860403280472 0.1506038021407966
0.04406419152135879 0.10830701794487681 0.16225885766101386
0.1336857896025329 0.12314373303014857 0.08344897047745292
0.11657712279110762 0.1540903956593975 -0.05163259055361599
-0.045881035355637874 0.16693240910681575 -0.10014240552577816
-0.14432935602094163 0.1373137174870255 0.017719480254048882
-0.09663927677944734 0.11348517729011903 0.1333490334384754
0.01486164995984905 0.10729175770489321 0.16812974183369644
0.1177342109131595 0.1177342109131595 0.11080302866488508
0.13591206025729283 0.14565064729331473 -0.017714424056582825
1.8284218865095871e-16 0.16886558510040306 -0.10716535899579932
-0.13591206025729272 0.14565064729331478 -0.017714424056583085
-0.11773421091315939 0.11773421091315948 0.11080302866488526
-0.014861649959848866 0.10729175770489321 0.16812974183369644
0.09663927677944684 0.11348517729011894 0.13334903343847582
0.14432935602094166 0.13731371748702545 0.01771948025404916
0.04588103535563821 0.16693240910681573 -0.10014240552577805
-0.11657712279110777 0.15409039565939744 -0.05163259055361578
-0.13368578960253266 0.12314373303014843 0.08344897047745353
-0.0440641915213582 0.10830701794487677 0.16225885766101403
0.07169011993759239 0.11035860403280472 0.15060380214079672
0.14306770010335146 0.1297074734576226 0.05203464726869608
0.08604893184837033 0.16161662185013587 -0.08047141647507336
-0.08604893184836991 0.16161662185013592 -0.08047141647507365
-0.14306770010335154 0.12970747345762265 0.052034647268695694
-0.0716901199375927 0.11035860403280473 0.15060380214079655
0.044064191521358674 0.1083070179448768 0.1622588576610139
0.1336857896025325 0.12314373303014836 0.08344897047745387
0.11657712279110806 0.15409039565939736 -0.05163259055361541
-0.045881035355637693 0.16693240910681575 -0.1001424055257782
-0.1443293560209416 0.13731371748702553 0.01771948025404874
-0.09663927677944711 0.11348517729011898 0.1333490334384756
0.014861649959849356 0.10729175770489321 0.16812974183369642
0.11773421091315917 0.11773421091315942 0.11080302866488555
0.13591206025729288 0.1456506472933147 -0.01771442405658268
3.6568437730191743e-16 0.16886558510040306 -0.10716535899579932
-0.13591206025729266 0.1456506472933148 -0.017714424056583227
-0.11773421091315946 0.1177342109131595 0.11080302866488517
-0.014861649959848977 0.10729175770489321 0.16812974183369644
0.09663927677944739 0.11348517729011903 0.13334903343847535
0.14432935602094157 0.13731371748702564 0.017719480254048296
0.045881035355637145 0.16693240910681584 -0.10014240552577841
-0.11657712279110766 0.15409039565939747 -0.0516325905536159
-0.13368578960253305 0.12314373303014861 0.08344897047745256
-0.04406419152135912 0.10830701794487681 0.16225885766101375
0.07169011993759228 0.11035860403280469 0.15060380214079677
0.14306770010335146 0.12970747345762257 0.0520346472686962
0.08604893184837048 0.16161662185013584 -0.08047141647507326
-0.08604893184836976 0.16161662185013595 -0.08047141647507373
-0.14306770010335143 0.1297074734576225 0.05203464726869649
-0.07169011993759279 0.11035860403280476 0.15060380214079647
0.04406419152135937 0.10830701794487681 0.16225885766101367
0.13368578960253283 0.1231437330301485 0.08344897047745314
0.11657712279110675 0.15409039565939778 -0.05163259055361711
-0.04588103535563877 0.1669324091068157 -0.1001424055257779
-0.1443293560209416 0.13731371748702556 0.0177194802540486
-0.09663927677944784 0.11348517729011909 0.13334903343847496
0.014861649959849241 0.10729175770489321 0.16812974183369642
0.11773421091315911 0.11773421091315939 0.11080302866488563
0.13591206025729252 0.1456506472933149 -0.017714424056583543
5.485265659528761e-16 0.16886558510040306 -0.10716535899579932
-0.13591206025729224 0.1456506472933151 -0.017714424056584372
-0.11773421091315953 0.11773421091315953 0.11080302866488506
-0.01486164995984993 0.10729175770489321 0.16812974183369633
0.0966392767794473 0.113485177290119 0.1333490334384754
0.0 0.1996053456856543 -0.01255810390586275
-0.17446907908481268 0.02589843729932839 0.09428579632558733
-0.10729175770489321 0.014861649959849272 0.16812974183369642
-0.012582834878537404 0.012582834878537404 0.1992067883703739
0.08528685828099192 0.013872931879001797 0.18037098870283597
0.1615188584229843 0.021285465648904975 0.11601115173053514
0.1779664357048269 0.08969045387042178 0.016839544145773672
-0.18401421363742543 0.03369102902813791 0.07073672131520607
-0.12756419204005107 0.016276331249883518 0.15317459955949955
-0.037547655913571044 0.012783632860366968 0.1960274273317064
0.061912660082869046 0.01320161378069504 0.18971699954155002
0.1457552297724047 0.018304093203047513 0.1357216753728293
0.18852242814212464 0.04904607227439213 0.045318615180216494
-0.18852242814212467 0.04904607227439221 0.045318615180216404
-0.14575522977240465 0.018304093203047506 0.13572167537282936
-0.06191266008286914 0.01320161378069504 0.18971699954154997
0.03754765591357112 0.012783632860366968 0.19602742733170633
0.1275641920400513 0.016276331249883536 0.1531745995594994
0.18401421363742546 0.033691029028137955 0.07073672131520596
-0.17796643570482654 0.08969045387042254 0.01683954414577334
-0.16151885842298436 0.02128546564890499 0.1160111517305351
-0.08528685828099215 0.013872931879001807 0.18037098870283585
0.012582834878537215 0.0125828348785374 0.1992067883703739
0.10729175770489321 0.014861649959849269 0.16812974183369642
0.17446907908481257 0.025898437299328336 0.09428579632558755
1.5602951634450248e-15 0.1996053456856543 -0.01255810390586275
-0.17446907908481268 0.025898437299328378 0.09428579632558737
-0.10729175770489308 0.014861649959849264 0.1681297418336965
-0.012582834878537058 0.0125828348785374 0.19920678837037392
0.08528685828099168 0.013872931879001788 0.1803709887028361
0.16151885842298422 0.021285465648904957 0.11601115173053521
0.17796643570482681 0.08969045387042202 0.016839544145773554
-0.1840142136374254 0.033691029028137885 0.07073672131520613
-0.1275641920400509 0.0162763312498835 0.15317459955949972
-0.037547655913570614 0.012783632860366961 0.19602742733170644
0.06191266008286894 0.013201613780695037 0.18971699954155002
0.14575522977240477 0.01830409320304752 0.13572167537282925
0.1885224281421247 0.049046072274392366 0.04531861518021624
-0.18852242814212467 0.049046072274392616 0.045318615180215904
-0.14575522977240496 0.01830409320304755 0.13572167537282903
-0.06191266008286922 0.013201613780695044 0.18971699954154994
0.03754765591357102 0.012783632860366965 0.1960274273317064
0.12756419204005065 0.01627633124988348 0.15317459955949989
0.18401421363742532 0.03369102902813777 0.0707367213152064
-0.1779664357048264 0.08969045387042283 0.016839544145773235
-0.1615188584229844 0.021285465648905006 0.116011151730535
-0.08528685828099192 0.013872931879001797 0.18037098870283597
0.01258283487853747 0.0125828348785374 0.19920678837037387
0.10729175770489284 0.01486164995984925 0.16812974183369667
0.17446907908481255 0.025898437299328315 0.09428579632558765
3.1205903268900496e-15 0.1996053456856543 -0.01255810390586275
-0.1744690790848127 0.025898437299328406 0.09428579632558728
-0.10729175770489315 0.014861649959849267 0.16812974183369644
-0.01258283487853715 0.0125828348785374 0.1992067883703739
0.08528685828099224 0.01387293187900181 0.18037098870283583
0.1615188584229846 0.02128546564890505 0.11601115173053474
0.177966435704826 0.08969045387042374 0.016839544145772767
-0.18401421363742543 0.03369102902813793 0.07073672131520603
-0.1275641920400515 0.016276331249883553 0.1531745995594992
-0.037547655913571405 0.01278363286036697 0.1960274273317063
0.06191266008286886 0.013201613780695036 0.18971699954155008
0.1457552297724047 0.018304093203047513 0.1357216753728293
0.18852242814212467 0.04904607227439227 0.04531861518021632
-0.1885224281421247 0.04904607227439271 0.04531861518021582
-0.14575522977240454 0.018304093203047492 0.13572167537282948
-0.06191266008286931 0.013201613780695046 0.1897169995415499
0.03754765591357162 0.012783632860366973 0.19602742733170625
0.12756419204005115 0.01627633124988352 0.15317459955949952
0.1840142136374257 0.033691029028138315 0.07073672131520511
-0.1779664357048272 0.0896904538704211 0.016839544145773943
-0.16151885842298447 0.021285465648905016 0.11601115173053489
-0.08528685828099265 0.013872931879001824 0.18037098870283563
0.012582834878537378 0.012582834878537404 0.1992067883703739
0.10729175770489274 0.014861649959849245 0.1681297418336967
0.17446907908481282 0.025898437299328454 0.09428579632558709
4.680885490335074e-15 0.1996053456856543 -0.01255810390586275
-0.1744690790848131 0.025898437299328593 0.09428579632558655
-0.10729175770489324 0.014861649959849272 0.16812974183369636
-0.01258283487853796 0.012582834878537404 0.19920678837037387
0.08528685828099213 0.013872931879001805 0.18037098870283585
0.0 -0.18096541049320392 -0.08515585831301453
-0.14715139114082812 -0.1342868003560039 0.017706590170492125
-0.11348517729011898 -0.09663927677944707 0.13334903343847562
-0.013872931879001797 -0.08528685828099192 0.18037098870283597
0.09188712728469708 -0.09188712728469708 0.1520312851972638
0.15009172485711064 -0.12159914752907641 0.051827805757327865
0.056859048307845356 -0.17616578700597227 -0.07571435870488857
-0.13231355474536008 -0.1489296284318228 -0.017694321286949612
-0.1312964046126341 -0.10298985190720461 0.1102467438971671
-0.04125228365625226 -0.08634422947363651 0.1756215337871416
0.06751945733787755 -0.08850959737585072 0.16615406721823978
0.1440545645385817 -0.111215407861949 0.0829422418897629
0.10254476380786515 -0.16400933244277272 -0.05084791330295884
-0.102544763807865 -0.16400933244277277 -0.05084791330295894
-0.14405456453858168 -0.11121540786194895 0.082942241889763
-0.06751945733787766 -0.08850959737585072 0.16615406721823972
0.041252283656252345 -0.08634422947363651 0.17562153378714154
0.13129640461263423 -0.10298985190720467 0.11024674389716682
0.13231355474536002 -0.14892962843182284 -0.017694321286949744
-0.05685904830784477 -0.17616578700597235 -0.07571435870488875
-0.15009172485711064 -0.12159914752907648 0.05182780575732774
-0.09188712728469733 -0.09188712728469714 0.1520312851972636
0.013872931879001592 -0.0852868582809919 0.180370988702836
0.11348517729011898 -0.09663927677944707 0.13334903343847562
0.14715139114082817 -0.1342868003560038 0.017706590170492458
2.300998331122805e-16 -0.18096541049320392 -0.08515585831301453
-0.14715139114082815 -0.13428680035600388 0.0177065901704922
-0.11348517729011885 -0.09663927677944704 0.13334903343847576
-0.013872931879001418 -0.0852868582809919 0.180370988702836
0.09188712728469683 -0.09188712728469704 0.15203128519726394