# vtk DataFile Version 2.0
test
ASCII
DATASET UNSTRUCTURED_GRID
POINTS 6400 float
0.0 0.0 0.0
0.0 4.165 0.0
0.0 8.33 0.0
0.0 12.495000000000001 0.0
0.0 16.66 0.0
0.0 20.825 0.0
0.0 24.990000000000002 0.0
0.0 29.155 0.0
0.0 33.32 0.0
0.0 37.485 0.0
0.0 41.65 0.0
0.0 45.815 0.0
0.0 49.980000000000004 0.0
0.0 54.145 0.0
0.0 58.31 0.0
0.0 62.475 0.0
0.0 66.64 0.0
0.0 70.805 0.0
0.0 74.97 0.0
0.0 79.135 0.0
0.0 83.3 0.0
0.0 87.465 0.0
0.0 91.63 0.0
0.0 95.795 0.0
0.0 99.96000000000001 0.0
0.0 104.125 0.0
0.0 108.29 0.0
0.0 112.455 0.0
0.0 116.62 0.0
0.0 120.785 0.0
0.0 124.95 0.0
0.0 129.115 0.0
0.0 133.28 0.0
0.0 137.445 0.0
0.0 141.61 0.0
0.0 145.775 0.0
0.0 149.94 0.0
0.0 154.105 0.0
0.0 158.27 0.0
0.0 162.435 0.0
0.0 166.6 0.0
0.0 170.76500000000001 0.0
0.0 174.93 0.0
0.0 179.095 0.0
0.0 183.26 0.0
0.0 187.425 0.0
0.0 191.59 0.0
0.0 195.755 0.0
0.0 199.92000000000002 0.0
0.0 204.085 0.0
0.0 208.25 0.0
0.0 212.415 0.0
0.0 216.58 0.0
0.0 220.745 0.0
0.0 224.91 0.0
0.0 229.075 0.0
0.0 233.24 0.0
0.0 237.405 0.0
0.0 241.57 0.0
0.0 245.735 0.0
0.0 249.9 0.0
0.0 254.065 0.0
0.0 258.23 0.0
0.0 262.395 0.0
0.0 266.56 0.0
0.0 270.725 0.0
0.0 274.89 0.0
0.0 279.055 0.0
0.0 283.22 0.0
0.0 287.385 0.0
0.0 291.55 0.0
0.0 295.715 0.0
0.0 299.88 0.0
0.0 304.045 0.0
0.0 308.21 0.0
0.0 312.375 0.0
0.0 316.54 0.0
0.0 320.705 0.0
0.0 324.87 0.0
0.0 329.035 0.0
4.165 0.0 0.0
4.165 4.165 0.0
4.165 8.33 0.0
4.165 12.495000000000001 0.0
4.165 16.66 0.0
4.165 20.825 0.0
4.165 24.990000000000002 0.0
4.165 29.155 0.0
4.165 33.32 0.0
4.165 37.485 0.0
4.165 41.65 0.0
4.165 45.815 0.0
4.165 49.980000000000004 0.0
4.165 54.145 0.0
4.165 58.31 0.0
4.165 62.475 0.0
4.165 66.64 0.0
4.165 70.805 0.0
4.165 74.97 0.0
4.165 79.135 0.0
4.165 83.3 0.0
4.165 87.465 0.0
4.165 91.63 0.0
4.165 95.795 0.0
4.165 99.96000000000001 0.0
4.165 104.125 0.0
4.165 108.29 0.0
4.165 112.455 0.0
4.165 116.62 0.0
4.165 120.785 0.0
4.165 124.95 0.0
4.165 129.115 0.0
4.165 133.28 0.0
4.165 137.445 0.0
4.165 141.61 0.0
4.165 145.775 0.0
4.165 149.94 0.0
4.165 154.105 0.0
4.165 158.27 0.0
4.165 162.435 0.0
4.165 166.6 0.0
4.165 170.76500000000001 0.0
4.165 174.93 0.0
4.165 179.095 0.0
4.165 183.26 0.0
4.165 187.425 0.0
4.165 191.59 0.0
4.165 195.755 0.0
4.165 199.92000000000002 0.0
4.165 204.085 0.0
4.165 208.25 0.0
4.165 212.415 0.0
4.165 216.58 0.0
4.165 220.745 0.0
4.165 224.91 0.0
4.165 229.075 0.0
4.165 233.24 0.0
4.165 237.405 0.0
4.165 241.57 0.0
4.165 245.735 0.0
4.165 249.9 0.0
4.165 254.065 0.0
4.165 258.23 0.0
4.165 262.395 0.0
4.165 266.56 0.0
4.165 270.725 0.0
4.165 274.89 0.0
4.165 279.055 0.0
4.165 283.22 0.0
4.165 287.385 0.0
4.165 291.55 0.0
4.165 295.715 0.0
4.165 299.88 0.0
4.165 304.045 0.0
4.165 308.21 0.0
4.165 312.375 0.0
4.165 316.54 0.0
4.165 320.705 0.0
4.165 324.87 0.0
4.165 329.035 0.0
8.33 0.0 0.0
8.33 4.165 0.0
8.33 8.33 0.0
8.33 12.495000000000001 0.0
8.33 16.66 0.0
8.33 20.825 0.0
8.33 24.990000000000002 0.0
8.33 29.155 0.0
8.33 33.32 0.0
8.33 37.485 0.0
8.33 41.65 0.0
8.33 45.815 0.0
8.33 49.980000000000004 0.0
8.33 54.145 0.0
8.33 58.31 0.0
8.33 62.475 0.0
8.33 66.64 0.0
8.33 70.805 0.0
8.33 74.97 0.0
8.33 79.135 0.0
8.33 83.3 0.0
8.33 87.465 0.0
8.33 91.63 0.0
8.33 95.795 0.0
8.33 99.96000000000001 0.0
8.33 104.125 0.0
8.33 108.29 0.0
8.33 112.455 0.0
8.33 116.62 0.0
8.33 120.785 0.0
8.33 124.95 0.0
8.33 129.115 0.0
8.33 133.28 0.0
8.33 137.445 0.0
8.33 141.61 0.0
8.33 145.775 0.0
8.33 149.94 0.0
8.33 154.105 0.0
8.33 158.27 0.0
8.33 162.435 0.0
8.33 166.6 0.0
8.33 170.76500000000001 0.0
8.33 174.93 0.0
8.33 179.095 0.0
8.33 183.26 0.0
8.33 187.425 0.0
8.33 191.59 0.0
8.33 195.755 0.0
8.33 199.92000000000002 0.0
8.33 204.085 0.0
8.33 208.25 0.0
8.33 212.415 0.0
8.33 216.58 0.0
8.33 220.745 0.0
8.33 224.91 0.0
8.33 229.075 0.0
8.33 233.24 0.0
8.33 237.405 0.0
8.33 241.57 0.0
8.33 245.735 0.0
8.33 249.9 0.0
8.33 254.065 0.0
8.33 258.23 0.0
8.33 262.395 0.0
8.33 266.56 0.0
8.33 270.725 0.0
8.33 274.89 0.0
8.33 279.055 0.0
8.33 283.22 0.0
8.33 287.385 0.0
8.33 291.55 0.0
8.33 295.715 0.0
8.33 299.88 0.0
8.33 304.045 0.0
8.33 308.21 0.0
8.33 312.375 0.0
8.33 316.54 0.0
8.33 320.705 0.0
8.33 324.87 0.0
8.33 329.035 0.0
12.495000000000001 0.0 0.0
12.495000000000001 4.165 0.0
12.495000000000001 8.33 0.0
12.495000000000001 12.495000000000001 0.0
12.495000000000001 16.66 0.0
12.495000000000001 20.825 0.0
12.495000000000001 24.990000000000002 0.0
12.495000000000001 29.155 0.0
12.495000000000001 33.32 0.0
12.495000000000001 37.485 0.0
12.495000000000001 41.65 0.0
12.495000000000001 45.815 0.0
12.495000000000001 49.980000000000004 0.0
12.495000000000001 54.145 0.0
12.495000000000001 58.31 0.0
12.495000000000001 62.475 0.0
12.495000000000001 66.64 0.0
12.495000000000001 70.805 0.0
12.495000000000001 74.97 0.0
12.495000000000001 79.135 0.0
12.495000000000001 83.3 0.0
12.495000000000001 87.465 0.0
12.495000000000001 91.63 0.0
12.495000000000001 95.795 0.0
12.495000000000001 99.96000000000001 0.0
12.495000000000001 104.125 0.0
12.495000000000001 108.29 0.0
12.495000000000001 112.455 0.0
12.495000000000001 116.62 0.0
12.495000000000001 120.785 0.0
12.495000000000001 124.95 0.0
12.495000000000001 129.115 0.0
12.495000000000001 133.28 0.0
12.495000000000001 137.445 0.0
12.495000000000001 141.61 0.0
12.495000000000001 145.775 0.0
12.495000000000001 149.94 0.0
12.495000000000001 154.105 0.0
12.495000000000001 158.27 0.0
12.495000000000001 162.435 0.0
12.495000000000001 166.6 0.0
12.495000000000001 170.76500000000001 0.0
12.495000000000001 174.93 0.0
12.495000000000001 179.095 0.0
12.495000000000001 183.26 0.0
12.495000000000001 187.425 0.0
12.495000000000001 191.59 0.0
12.495000000000001 195.755 0.0
12.495000000000001 199.92000000000002 0.0
12.495000000000001 204.085 0.0
12.495000000000001 208.25 0.0
12.495000000000001 212.415 0.0
12.495000000000001 216.58 0.0
12.495000000000001 220.745 0.0
12.495000000000001 224.91 0.0
12.495000000000001 229.075 0.0
12.495000000000001 233.24 0.0
12.495000000000001 237.405 0.0
12.495000000000001 241.57 0.0
12.495000000000001 245.735 0.0
12.495000000000001 249.9 0.0
12.495000000000001 254.065 0.0
12.495000000000001 258.23 0.0
12.495000000000001 262.395 0.0
12.495000000000001 266.56 0.0
12.495000000000001 270.725 0.0
12.495000000000001 274.89 0.0
12.495000000000001 279.055 0.0
12.495000000000001 283.22 0.0
12.495000000000001 287.385 0.0
12.495000000000001 291.55 0.0
12.495000000000001 295.715 0.0
12.495000000000001 299.88 0.0
12.495000000000001 304.045 0.0
12.495000000000001 308.21 0.0
12.495000000000001 312.375 0.0
12.495000000000001 316.54 0.0
12.495000000000001 320.705 0.0
12.495000000000001 324.87 0.0
12.495000000000001 329.035 0.0
16.66 0.0 0.0
16.66 4.165 0.0
16.66 8.33 0.0
16.66 12.495000000000001 0.0
16.66 16.66 0.0
16.66 20.825 0.0
16.66 24.990000000000002 0.0
16.66 29.155 0.0
16.66 33.32 0.0
16.66 37.485 0.0
16.66 41.65 0.0
16.66 45.815 0.0
16.66 49.980000000000004 0.0
16.66 54.145 0.0
16.66 58.31 0.0
16.66 62.475 0.0
16.66 66.64 0.0
16.66 70.805 0.0
16.66 74.97 0.0
16.66 79.135 0.0
16.66 83.3 0.0
16.66 87.465 0.0
16.66 91.63 0.0
16.66 95.795 0.0
16.66 99.96000000000001 0.0
16.66 104.125 0.0
16.66 108.29 0.0
16.66 112.455 0.0
16.66 116.62 0.0
16.66 120.785 0.0
16.66 124.95 0.0
16.66 129.115 0.0
16.66 133.28 0.0
16.66 137.445 0.0
16.66 141.61 0.0
16.66 145.775 0.0
16.66 149.94 0.0
16.66 154.105 0.0
16.66 158.27 0.0
16.66 162.435 0.0
16.66 166.6 0.0
16.66 170.76500000000001 0.0
16.66 174.93 0.0
16.66 179.095 0.0
16.66 183.26 0.0
16.66 187.425 0.0
16.66 191.59 0.0
16.66 195.755 0.0
16.66 199.92000000000002 0.0
16.66 204.085 0.0
16.66 208.25 0.0
16.66 212.415 0.0
16.66 216.58 0.0
16.66 220.745 0.0
16.66 224.91 0.0
16.66 229.075 0.0
16.66 233.24 0.0
16.66 237.405 0.0
16.66 241.57 0.0
16.66 245.735 0.0
16.66 249.9 0.0
16.66 254.065 0.0
16.66 258.23 0.0
16.66 262.395 0.0
16.66 266.56 0.0
16.66 270.725 0.0
16.66 274.89 0.0
16.66 279.055 0.0
16.66 283.22 0.0
16.66 287.385 0.0
16.66 291.55 0.0
16.66 295.715 0.0
16.66 299.88 0.0
16.66 304.045 0.0
16.66 308.21 0.0
16.66 312.375 0.0
16.66 316.54 0.0
16.66 320.705 0.0
16.66 324.87 0.0
16.66 329.035 0.0
20.825 0.0 0.0
20.825 4.165 0.0
20.825 8.33 0.0
20.825 12.495000000000001 0.0
20.825 16.66 0.0
20.825 20.825 0.0
20.825 24.990000000000002 0.0
20.825 29.155 0.0
20.825 33.32 0.0
20.825 37.485 0.0
20.825 41.65 0.0
20.825 45.815 0.0
20.825 49.980000000000004 0.0
20.825 54.145 0.0
20.825 58.31 0.0
20.825 62.475 0.0
20.825 66.64 0.0
20.825 70.805 0.0
20.825 74.97 0.0
20.825 79.135 0.0
20.825 83.3 0.0
20.825 87.465 0.0
20.825 91.63 0.0
20.825 95.795 0.0
20.825 99.96000000000001 0.0
20.825 104.125 0.0
20.825 108.29 0.0
20.825 112.455 0.0
20.825 116.62 0.0
20.825 120.785 0.0
20.825 124.95 0.0
20.825 129.115 0.0
20.825 133.28 0.0
20.825 137.445 0.0
20.825 141.61 0.0
20.825 145.775 0.0
20.825 149.94 0.0
20.825 154.105 0.0
20.825 158.27 0.0
20.825 162.435 0.0
20.825 166.6 0.0
20.825 170.76500000000001 0.0
20.825 174.93 0.0
20.825 179.095 0.0
20.825 183.26 0.0
20.825 187.425 0.0
20.825 191.59 0.0
20.825 195.755 0.0
20.825 199.92000000000002 0.0
20.825 204.085 0.0
20.825 208.25 0.0
20.825 212.415 0.0
20.825 216.58 0.0
20.825 220.745 0.0
20.825 224.91 0.0
20.825 229.075 0.0
20.825 233.24 0.0
20.825 237.405 0.0
20.825 241.57 0.0
20.825 245.735 0.0
20.825 249.9 0.0
20.825 254.065 0.0
20.825 258.23 0.0
20.825 262.395 0.0
20.825 266.56 0.0
20.825 270.725 0.0
20.825 274.89 0.0
20.825 279.055 0.0
20.825 283.22 0.0
20.825 287.385 0.0
20.825 291.55 0.0
20.825 295.715 0.0
20.825 299.88 0.0
20.825 304.045 0.0
20.825 308.21 0.0
20.825 312.375 0.0
20.825 316.54 0.0
20.825 320.705 0.0
20.825 324.87 0.0
20.825 329.035 0.0
24.990000000000002 0.0 0.0
24.990000000000002 4.165 0.0
24.990000000000002 8.33 0.0
24.990000000000002 12.495000000000001 0.0
24.990000000000002 16.66 0.0
24.990000000000002 20.825 0.0
24.990000000000002 24.990000000000002 0.0
24.990000000000002 29.155 0.0
24.990000000000002 33.32 0.0
24.990000000000002 37.485 0.0
24.990000000000002 41.65 0.0
24.990000000000002 45.815 0.0
[...]
POINT_DATA 6400
VECTORS vector float
0.0 0.0 -0.2
-0.1239731516507397 -0.05135136078387285 0.14830271546882484
0.14335766674963157 0.05938068983785989 0.12618444063545023
-0.04396181424085993 -0.01820957968509085 -0.19425696923494007
-0.10282052303065191 -0.04258965512959119 0.16617479146863906
0.16020594682251002 0.0663594759467065 0.09965176644084929
-0.08513096981347229 -0.03526240227471477 -0.17750853772265113
-0.08047334120093769 -0.033333149334905963 0.18003594783091048
0.17353178591623888 0.07187921922933058 0.06870296296159635
-0.12099737355115775 -0.050118753136413154 -0.15115470941314688
-0.057348955149770064 -0.023754715010961113 0.1901231465602694
0.18214371490620831 0.07544639701516996 0.03363789972033421
-0.1496152245456983 -0.06197265514432422 -0.11736555967788394
-0.03374933586235606 -0.013979432635272555 0.19663559645203044
0.1847229997559822 0.07651477178116975 -0.004785714202385296
-0.1698319421073873 -0.07034669374504214 -0.07879374416268276
-0.009899036603284832 -0.004100315215508272 0.19971278499249945
0.17999167093088142 0.07455499121376624 -0.045216719038697756
-0.1813775418450102 -0.07512903774209678 -0.03818134364068623
0.014020845687082714 0.0058076244395299775 0.19942338725582912
0.1669684215477859 0.06916058469312104 -0.08566422666870044
-0.1847664053517696 -0.07653275096762778 0.0020281722591143476
0.03784164916191023 0.015674524305427682 0.19576087166874145
0.14525957148412505 0.06016848457322869 -0.12360991204757613
-0.18105185579901292 -0.07499413416476905 0.039951287245970565
0.06137705694428824 0.025423209404869942 0.18864389018575115
0.11528549633951453 0.047752816128740716 -0.15629754599969403
-0.17153504878444573 -0.0710521436288479 0.07434594759812667
0.08439169686303383 0.034956185392347586 0.17792163051015925
0.07834684287771687 0.03245232488906425 -0.18113149593703734
-0.15752205844442052 -0.0652477729806063 0.10454438877579145
0.10656652484826384 0.04414129988712032 0.16338641750782001
0.036505581516336004 0.01512110696638295 -0.19605788594765922
-0.14017232503520838 -0.05806127809895304 0.13030965919585522
0.12746020209323622 0.052795744369834 0.1447981569592187
-0.007659032604664849 -0.0031724751795099123 -0.1998281126888709
-0.1204340132119187 -0.04988540164339724 0.15168089914207505
0.14646815031484337 0.06066909431610923 0.12192760941727471
-0.05133435489943094 -0.021263386015018034 -0.19212665724004985
-0.09903938720573599 -0.04102345738973623 0.16884393896644556
0.1627856394719612 0.06742801962886336 0.09462715123385194
-0.09175609375725334 -0.03800661846463161 -0.17359814575995353
-0.07653215816307597 -0.03170065786882884 0.1820381747260321
0.1753887307827876 0.07264839097763418 0.06293651088806601
-0.12649182334304196 -0.05239462875798963 -0.14578964813958883
-0.053306911030321605 -0.022080445516975147 0.19149628498270474
0.18305617732171203 0.07582435132282732 0.02722321969999833
-0.153718954700148 -0.06367247583061672 -0.1109788213466578
-0.029649674191981917 -0.012281297170262448 0.19740837510127332
0.18446157610520164 0.07640648655949137 -0.011660864136896995
-0.17243576489830562 -0.07142523245905667 -0.07186336446414118
-0.005775188640349797 -0.00239216146009592 0.19990228803022045
0.17835787722735197 0.07387825170364458 -0.0522539142664527
-0.1825196322348934 -0.07560210707104238 -0.03115935261294613
0.01813975150608723 0.007513731091899108 0.1990338997768371
0.16384469655944656 0.06786669543782714 -0.09246094883620926
-0.184598073964579 -0.07646302582408035 0.008772500806146727
0.041925595475020436 0.017366150256321527 0.19478362679994388
0.14065604216926653 0.05826164029623217 -0.12969756771531982
-0.17978753564623134 -0.0744704356103053 0.04615838218857415
0.06538987784369886 0.027085374244780025 0.18705760176375177
0.10936471541753146 0.04530034837101546 -0.16120557514896
-0.16940503694560902 -0.07016986383718649 0.07986315587633366
0.08828538081735467 0.03656900209382179 0.17569405117930637
0.07141572546317587 0.029581362053561034 -0.18445795503481122
-0.154739507157684 -0.06409520249964132 0.10930457420038303
0.11027483577310059 0.045677332565684015 0.1604775432417246
0.02897972635025599 0.012003795688136986 -0.19752489551887314
-0.13691650781591921 -0.0567126744501156 0.1343039182012518
0.13089168262757012 0.05421711014617438 0.14116611628263015
-0.01530340534557499 -0.006338878044630081 -0.19931288069255418
-0.11684609488527337 -0.04839923721181376 0.15493386959401836
0.14949919540392984 0.06192459430017322 0.11753865404341063
-0.05860938202579466 -0.024276800917390054 -0.18967228916152162
-0.09522553603850033 -0.03944370851139476 0.1713951316258674
0.16525541284262035 0.0684510332549783 0.08947124997752615
-0.0982107071799607 -0.04068020688419242 -0.16941008754814849
-0.07256989063668776 -0.030059432921648352 0.1839294469773889
0.17709923985769088 0.07335690703502136 0.05704930702544345
-0.1317610439850862 -0.054577211411060624 -0.14021538889348975
-0.06484723214064692 0.026860603035012427 0.18727878814295157
-0.010669729114712596 0.086391812379557 0.1800627991407278
0.08398537840256741 0.07485063929949508 0.16535972306167682
-0.06863665604234227 0.03227798351944873 0.18505983147956068
-0.0017670089572820872 0.0890853008408311 0.17905498276630982
0.08467683945500785 0.06808546506023118 0.16791129297174406
-0.06950284185896094 0.03817356975021518 0.1836086423512078
0.00733962463517321 0.09125719531387871 0.17781522492086935
0.08157058312067193 0.06023788103762461 0.1723880438355588
-0.06812636531938283 0.04423477539393385 0.18276236755475184
0.016588153617809544 0.09287288789031088 0.17635038943667153
0.07347983045340176 0.05144901474764444 0.17875601639675237
-0.065025220635563 0.05025259337202921 0.1823359469240277
0.025906934365881113 0.093891456882431 0.17468035114533212
0.05940501657840922 0.042117707186719255 0.1862716906742748
-0.060585966178872276 0.056088830212893404 0.18216306932943835
0.035208239628477626 0.09426530862024443 0.17284221548277426
0.03934550618491892 0.033059337869366656 0.19328479330431447
-0.05509620497491442 0.06165235228634837 0.18210819765985883
0.04438063409515253 0.09394029768632017 0.1708964007459424
0.015202157342203962 0.025480530082162035 0.19778684738595464
-0.04877087290753424 0.06688264668763493 0.18206623390374765
0.053279559340687066 0.09285639268961171 0.16893483623319036
-0.009423953679795198 0.020537230748826716 0.19871942846689783
-0.04177197318769231 0.0717385326123092 0.18195792149461196
0.06171519802388508 0.09094895027809462 0.16709136056716198
-0.030977271277183784 0.01873857993071989 0.196695892906791
-0.03422316414237485 0.0761903413283575 0.18172453583474205
0.06943615939238522 0.0881506452971041 0.16555386888423787
-0.0475414930279647 0.019811413132400854 0.19325453254806035
-0.026220691443495283 0.08021441143810897 0.18132325702419638
0.07610675027663052 0.0843941490299232 0.1645763961564529
-0.05890228023626384 0.023058128121495266 0.18973361354936913
-0.01784185123336588 0.08378913952449128 0.1807236798051428
0.08127485374175421 0.07961597784093069 0.16448615206663725
-0.06574405560739377 0.02774282564070481 0.186836973797376
-0.009151862343974354 0.08689209256420483 0.17990555206955292
0.08432820095333424 0.07376316035789142 0.1656736270442284
-0.0689733481099357 0.033270658790151446 0.18475860065007788
-0.00020979839366742087 0.08949786690254477 0.17885773062556842
0.08444410589744433 0.0668078496554003 0.16854051205452844
-0.06940915089675746 0.03921373062637341 0.1834247886795931
0.00892591674814471 0.09157650184647446 0.17757835543716427
0.08056472253832266 0.05878282097796385 0.17336062251905923
-0.06770246913060261 0.04528002693528098 0.18266388486605678
0.018192030470136993 0.09309234553103612 0.17607630513758454
0.07149860185105462 0.049862151891674505 0.18000476588711742
-0.06434618218785386 0.051274828862856295 0.1822922399964747
0.027514612849430898 0.0940033389217495 0.1743740759152823
0.056348125980379374 0.04050654358419706 0.18757427495624457
-0.05970760913450579 0.05706951828613627 0.18214848748762488
0.0368024337404304 0.09426073583902377 0.17251230260438533
0.03538889312765941 0.03161054626863207 0.19428947374419897
-0.05406014422650617 0.06257924460811883 0.1821025506424514
0.04593908041292591 0.09380931229540562 0.17055618961936792
0.010878924314588301 0.0244152571022404 0.19820581279667093
-0.04760835303018262 0.06774751849527257 0.182054163532412
0.05477315123033353 0.09258813310705251 0.16860409102999174
-0.013438058114241154 0.02000162050983187 0.19854307787253367
-0.040506706333703575 0.07253562520799565 0.18192797975484773
0.06310552213606756 0.09053193580942392 0.16679826640146064
-0.03421301066832113 0.018735318003614738 0.19615926631263886
-0.032873438274290484 0.07691527320244346 0.18166831810808373
0.0706721102777704 0.08757317968334896 0.165337204007551
-0.04985908895103771 0.020237684856840688 0.1926253030123709
-0.024800977628686577 0.08086340294612258 0.1812347140385484
0.07711975032806995 0.08364487795837054 0.1644873201820294
-0.06037928230771847 0.02378203289153264 0.18917916687508404
-0.016364081452309796 0.0843584499614487 0.18059863996809036
0.08197215485497683 0.07868475692889894 0.16458819780127554
-0.06653377279558476 0.02864969548900284 0.18642009555295513
-0.0076265038178520836 0.08737760445180498 0.1797414550953124
0.08458430259875166 0.07264277645609979 0.16603771494040723
-0.06922742778868012 0.034275350356944526 0.18447971053661102
0.0013531802344661772 0.08989477675607256 0.1786535698362306
0.0840930295387069 0.06549811953407304 0.1692287171862461
-0.06925215651968486 0.04025732359535744 0.18325797858295761
0.010516110577779892 0.09187909409259748 0.17733483438692899
0.07940414878086663 0.05730045988539048 0.17438933010166865
-0.06722983664256899 0.04632299725597646 0.18257691253342054
0.0838647639375008 -0.03473792262813088 0.1782132938396832
-0.09115270211079636 -0.09931424102128457 0.14774256809825195
0.024049253172541658 -0.08367077509133292 0.18005786519188374
0.0755403807858898 -0.03416570646256912 0.18200647068891904
-0.08380486222117117 -0.10103615174923733 0.15089215058377162
0.033659006820164476 -0.07952301530462841 0.18039723195420698
0.059909773501450964 -0.03654668454405255 0.18728363219417324
-0.07534194065431662 -0.10210420157069924 0.15459082767115084
0.04291791250187915 -0.07507079927626369 0.18033975679950326
0.034832259809774196 -0.04268801244627418 0.19226140348476375
-0.06609327183404061 -0.10253715403486217 0.15848599768024485
0.05174756895427353 -0.07034872902329654 0.17992566640735141
0.0007700162683231219 -0.052311848176669534 0.19303594902320032
-0.056303262740964456 -0.10236088634285737 0.1623335810971549
0.06004886546919767 -0.06540063719145321 0.17921185901277323
-0.036086971587326225 -0.0632729871166328 0.18626395137812882
-0.0461579329043765 -0.10160678660858367 0.16596838899342495
0.06769229333080222 -0.06028536750332723 0.17827907305291169
-0.06673043465495904 -0.07296909391536048 0.17384637017761273
-0.03580123890866019 -0.10030927070084508 0.16928178137079494
0.07450410711926106 -0.05508506603616321 0.17724213246898496
-0.08677005723738714 -0.08047166282057477 0.16123048300464862
-0.02534605210191018 -0.09850349877438502 0.17220522167475638
0.08024534827351194 -0.049917325418710905 0.17626384967855802
-0.09726764651578323 -0.08620527433949686 0.1520120245813887
-0.014882250686790827 -0.09622369196110873 0.17469836782256776
0.08457843981308438 -0.04495333577696673 0.17557244977873876
-0.10093919214058245 -0.09074862500372333 0.1468875983530951
-0.00448318015604232 -0.09350214415298451 0.17674062955212924
0.08701214504543388 -0.04044533049204166 0.17547951976222728
-0.10003942704538488 -0.09443034147962848 0.14517239284544387
0.00578884518061383 -0.09036890338846318 0.17832540641154165
0.08681028162443136 -0.03676747567426925 0.1763863025771246
-0.09606793572753114 -0.09738516164845659 0.1459009321963192
0.015877590192154407 -0.08685207079979322 0.1794564569121928
0.08284823532075823 -0.034471494200763265 0.17873971576513994
-0.08998326011914946 -0.0996583811418554 0.14822692051889283
0.025728188651183176 -0.08297868770384902 0.18014604546222
0.07343487853244622 -0.03433782414418403 0.18283389305040784
-0.08241476515770585 -0.10126651595213412 0.15150214266113982
0.035282379633858045 -0.07877623265430973 0.18041468581068004
0.05630146348453224 -0.037324134840401195 0.1882473218080816
-0.07379568789612956 -0.10222352370626334 0.15525639326292512
0.044473345050511474 -0.07427482393271335 0.18029246270929514
0.029509616360000875 -0.04413501246973578 0.19282448811440378
-0.06443813951133104 -0.10254940882172384 0.15915823863888795
0.0532196825845396 -0.06951032363207686 0.17982207955132984
-0.005644428272383941 -0.054188603222778964 0.19243631598594413
-0.05457493911122651 -0.1022711589088664 0.1629790970537121
0.06141782046511804 -0.06452868288794561 0.1790639562113534
-0.042024700259694285 -0.06508750187949286 0.18438422293452839
-0.044383882857612515 -0.10142086431986425 0.1665649399576436
0.06893176181136727 -0.05939208480015854 0.1781038811387099
-0.07096159155447045 -0.07441644064282608 0.17154196537905603
-0.0340028874892943 -0.10003321816303763 0.16981507267123408
0.07557827644033997 -0.05418778601144826 0.17706385282571102
-0.0891872814233124 -0.08156784602673799 0.1593496637174903
-0.023540339795738222 -0.0981433196103414 0.1726665607990255
0.08110424451622933 -0.049041114830801376 0.17611663912760728
-0.09831454168991041 -0.08706103128599119 0.15084637126468287
-0.013082839867678657 -0.0957851086989005 0.17508298675924083
0.08515031593048744 -0.04413495553115367 0.17550364496842016
-0.10105964075311236 -0.09143932278415262 0.14637554187646043
-0.0027014584437264084 -0.09299049698548689 0.17704651816025352
0.08719081590110134 -0.03973921305095525 0.175552147718537
-0.09954159803450043 -0.09498970471362278 0.1451496684775983
0.007542881185254588 -0.08978915895694473 0.1785525465436706
0.08643442082304553 -0.0362543655815407 0.1766768572090433
-0.09514880522275117 -0.09782510818520332 0.14620859438909953
0.01759451355915681 -0.0862089333513031 0.1796063832469415
0.08167128837405435 -0.03426880796811129 0.17931940624418422
-0.0887701625850792 -0.09998275157981132 0.14873905882836674
0.027398333271863543 -0.08227681208863068 0.18022168994451268
0.07109984954102733 -0.03460303996201335 0.18370476591702944
-0.08099371907432291 -0.10147750769409247 0.15212604281550568
0.03689498959549036 -0.07802054973141546 0.18042049097138715
0.052398705879100796 -0.03821838439274683 0.18919231146271176
-0.0722276683211229 -0.10232406720826409 0.15592610172402988
0.04601561283437308 -0.07347100409844128 0.1802347772552343
0.02392138219902547 -0.04568386300853559 0.19323755363361828
-0.018652165477042345 0.0077259799082181725 -0.1989784057566922
-0.11584888675906622 -0.02829615996897658 0.16055641615237662
0.14615817260154537 0.07908117807532837 0.11128322360533545
-0.06309419324265335 -0.010313406540983916 -0.18950661314207248
-0.09369517254790143 -0.019099136971597715 0.1756600057160398
0.16078527014604388 0.0848410096564304 0.08336725966793672
-0.10415660326428591 -0.026811147458726977 -0.1686195847711426
-0.0707388008639893 -0.009594386300226713 0.18682604155697058
0.17155999852049042 0.08895356118761406 0.051521169044294046
-0.13896769387746297 -0.04063946356452018 -0.1379725119709277
-0.04731801075014702 8.243787947356709e-05 0.19432189547924084
0.1773784975790614 0.09096277141920056 0.016206258431025494
-0.16538794961204953 -0.05097994187144365 -0.10023907247129926
-0.023675127430333023 0.009833418513792165 0.19835017575361535
0.1770816292838972 0.09039715409140668 -0.02168988479302938
-0.18237521879360885 -0.057458534850801116 -0.05863272416306941
4.477178042410905e-06 0.01958258366039283 0.19903899717678092
0.16960653077395624 0.08683554589532823 -0.06077180833152307
-0.19004160554611052 -0.06015851002411329 -0.01628317638347022
0.023559410686102032 0.029262489878355166 0.1964399675581391
0.1541884804238321 0.07999251046578955 -0.09913178488239834
-0.18939195743635245 -0.05951049690625057 0.02427317895122122
0.046822887728877154 0.03880220322980242 0.19053085369367892
0.13057227949013178 0.06980498215615669 -0.1344549898476422
-0.18190559685162147 -0.05612452393746525 0.06132203231179038
0.06959453670723122 0.04811570356895277 0.18122218277730384
0.09917716338020316 0.05649582904974662 -0.16423188351790374
-0.16915260835717874 -0.05063868021349624 0.09393145986408476
0.0916114059882709 0.057089936696827714 0.16836890871180585
0.061173337458494695 0.04059704709382175 -0.1860368311691294
-0.15254685866910428 -0.04362318772927462 0.12176400700750939
0.1125170963804133 0.06557213655650909 0.15178997967433594
0.018463106092553746 0.022931262289305206 -0.19782131058921382
-0.13323904931653008 -0.03554001572757818 0.1448594595437618
0.13182957575080176 0.07335674814456386 0.1313002302321616
-0.02642011421386265 0.004559798168920102 -0.19819481780708892
-0.11210525028653553 -0.02673990418731629 0.16345455142713639
0.14891100000896074 0.08017347339341369 0.10676014350105985
-0.07050088164532367 -0.013301868760743083 -0.18668874088895673
-0.0897834751000504 -0.01747795101249895 0.17785794564023086
0.16294710025045583 0.08567975977539807 0.07814871262406041
-0.11067611443102071 -0.029413538694761616 -0.16396841597058676
-0.06672612295309265 -0.007935128745703322 0.18837371963052033
0.17294907116775338 0.08946328245789567 0.045661141839316195
-0.1441658334125939 -0.04268766835423784 -0.1318862215962336
-0.043251798043776664 0.0017606692382651043 0.19525926869117838
0.17779548548287472 0.09106176925192769 0.00982443497701322
-0.16900061231165628 -0.052375626924629916 -0.09325012998670422
-0.019590420462188732 0.011516358687369724 0.1987047782734439
0.17633126894845075 0.09000702062479829 -0.028390488359242374
-0.18434319140678718 -0.05818516834070049 -0.05130374223314495
0.004078992186764339 0.0212583432548571 0.1988251610455754
0.16752963149692146 0.08589485246654796 -0.0674973843215844
-0.19048529099720335 -0.060269965117005844 -0.00910413194685113
0.027596150897800893 0.03091941161603917 0.195658995297798
0.15069919398104026 0.07847232187364564 -0.10550757144974841
-0.18854456891464172 -0.05910391804119273 0.030946282571124667
0.050790491716867205 0.04042685758421282 0.18917186666368924
0.12569137481263487 0.06772211174056052 -0.14005496734892617
-0.18004021907035175 -0.0553113867531438 0.06727681630802622
0.07345296716954157 0.049690870836176564 0.17926371347691272
0.09305219709335757 0.05391996970180875 -0.1686236207755455
-0.16652873235254978 -0.04952389477236697 0.09907353404228782
0.09530677181713118 0.058592475246056555 0.16578160661043656
0.05408189605133832 0.03765036235317757 -0.18883219729211084
-0.1493829014828962 -0.04229457028964229 0.12607901517923528
0.11597614767216112 0.06697073258006107 0.14854108572652563
0.010800959487155912 0.019781607972100518 -0.19872601052754757
-0.12970501833376888 -0.03406568754132094 0.1483783580963672
0.1349542090018986 0.07460970823832172 0.12736071964803114
-0.03416456557953673 0.0014086937214640534 -0.1970553172100683
-0.1083267448414548 -0.025170097274778064 0.16622810398736
0.15157373275182273 0.08122698714923968 0.10211552329756857
-0.07779071416208092 -0.016237948206256937 -0.18353455758577006
-0.08585023070417891 -0.01584854238917868 0.1799404390129625
0.16498934719658634 0.08646742612874436 0.07281414375184547
-0.11699488539972605 -0.03193074231585975 -0.1590365507846015
-0.06270126061621431 -0.0062714064436565145 0.18981364908339982
0.17418498925940662 0.0899080732802265 0.03970047702154006
-0.14910385570063442 -0.044628126637273044 -0.1256040227383339
-0.049393502777945436 0.020459458743738147 0.19272180061227734
-0.008531906311769706 0.08356385282052603 0.18150561720364647
0.06919038032256873 0.04848921768304512 0.1812773759720296
-0.053307637780856204 0.02770244497773182 0.19076391245851712
-0.000819490532276831 0.0853243936899476 0.1808841515354796
0.06757481094281541 0.039182218980554864 0.18411517765193233
-0.05491231385198439 0.03501428339188419 0.18909954454195277