# vtk DataFile Version 2.0
test
ASCII
DATASET UNSTRUCTURED_GRID
POINTS 6400 float
0.0 0.0 0.0
0.0 4.234 0.0
0.0 8.468 0.0
0.0 12.702 0.0
0.0 16.936 0.0
0.0 21.17 0.0
0.0 25.404 0.0
0.0 29.637999999999998 0.0
0.0 33.872 0.0
0.0 38.106 0.0
0.0 42.34 0.0
0.0 46.574 0.0
0.0 50.808 0.0
0.0 55.042 0.0
0.0 59.275999999999996 0.0
0.0 63.51 0.0
0.0 67.744 0.0
0.0 71.978 0.0
0.0 76.212 0.0
0.0 80.446 0.0
0.0 84.68 0.0
0.0 88.914 0.0
0.0 93.148 0.0
0.0 97.382 0.0
0.0 101.616 0.0
0.0 105.85 0.0
0.0 110.084 0.0
0.0 114.318 0.0
0.0 118.55199999999999 0.0
0.0 122.786 0.0
0.0 127.02 0.0
0.0 131.254 0.0
0.0 135.488 0.0
0.0 139.722 0.0
0.0 143.956 0.0
0.0 148.19 0.0
0.0 152.424 0.0
0.0 156.658 0.0
0.0 160.892 0.0
0.0 165.126 0.0
0.0 169.36 0.0
0.0 173.594 0.0
0.0 177.828 0.0
0.0 182.062 0.0
0.0 186.296 0.0
0.0 190.53 0.0
0.0 194.764 0.0
0.0 198.998 0.0
0.0 203.232 0.0
0.0 207.466 0.0
0.0 211.7 0.0
0.0 215.934 0.0
0.0 220.168 0.0
0.0 224.402 0.0
0.0 228.636 0.0
0.0 232.87 0.0
0.0 237.10399999999998 0.0
0.0 241.338 0.0
0.0 245.572 0.0
0.0 249.806 0.0
0.0 254.04 0.0
0.0 258.274 0.0
0.0 262.508 0.0
0.0 266.742 0.0
0.0 270.976 0.0
0.0 275.21 0.0
0.0 279.444 0.0
0.0 283.678 0.0
0.0 287.912 0.0
0.0 292.146 0.0
0.0 296.38 0.0
0.0 300.614 0.0
0.0 304.848 0.0
0.0 309.082 0.0
0.0 313.316 0.0
0.0 317.55 0.0
0.0 321.784 0.0
0.0 326.018 0.0
0.0 330.252 0.0
0.0 334.486 0.0
4.234 0.0 0.0
4.234 4.234 0.0
4.234 8.468 0.0
4.234 12.702 0.0
4.234 16.936 0.0
4.234 21.17 0.0
4.234 25.404 0.0
4.234 29.637999999999998 0.0
4.234 33.872 0.0
4.234 38.106 0.0
4.234 42.34 0.0
4.234 46.574 0.0
4.234 50.808 0.0
4.234 55.042 0.0
4.234 59.275999999999996 0.0
4.234 63.51 0.0
4.234 67.744 0.0
4.234 71.978 0.0
4.234 76.212 0.0
4.234 80.446 0.0
4.234 84.68 0.0
4.234 88.914 0.0
4.234 93.148 0.0
4.234 97.382 0.0
4.234 101.616 0.0
4.234 105.85 0.0
4.234 110.084 0.0
4.234 114.318 0.0
4.234 118.55199999999999 0.0
4.234 122.786 0.0
4.234 127.02 0.0
4.234 131.254 0.0
4.234 135.488 0.0
4.234 139.722 0.0
4.234 143.956 0.0
4.234 148.19 0.0
4.234 152.424 0.0
4.234 156.658 0.0
4.234 160.892 0.0
4.234 165.126 0.0
4.234 169.36 0.0
4.234 173.594 0.0
4.234 177.828 0.0
4.234 182.062 0.0
4.234 186.296 0.0
4.234 190.53 0.0
4.234 194.764 0.0
4.234 198.998 0.0
4.234 203.232 0.0
4.234 207.466 0.0
4.234 211.7 0.0
4.234 215.934 0.0
4.234 220.168 0.0
4.234 224.402 0.0
4.234 228.636 0.0
4.234 232.87 0.0
4.234 237.10399999999998 0.0
4.234 241.338 0.0
4.234 245.572 0.0
4.234 249.806 0.0
4.234 254.04 0.0
4.234 258.274 0.0
4.234 262.508 0.0
4.234 266.742 0.0
4.234 270.976 0.0
4.234 275.21 0.0
4.234 279.444 0.0
4.234 283.678 0.0
4.234 287.912 0.0
4.234 292.146 0.0
4.234 296.38 0.0
4.234 300.614 0.0
4.234 304.848 0.0
4.234 309.082 0.0
4.234 313.316 0.0
4.234 317.55 0.0
4.234 321.784 0.0
4.234 326.018 0.0
4.234 330.252 0.0
4.234 334.486 0.0
8.468 0.0 0.0
8.468 4.234 0.0
8.468 8.468 0.0
8.468 12.702 0.0
8.468 16.936 0.0
8.468 21.17 0.0
8.468 25.404 0.0
8.468 29.637999999999998 0.0
8.468 33.872 0.0
8.468 38.106 0.0
8.468 42.34 0.0
8.468 46.574 0.0
8.468 50.808 0.0
8.468 55.042 0.0
8.468 59.275999999999996 0.0
8.468 63.51 0.0
8.468 67.744 0.0
8.468 71.978 0.0
8.468 76.212 0.0
8.468 80.446 0.0
8.468 84.68 0.0
8.468 88.914 0.0
8.468 93.148 0.0
8.468 97.382 0.0
8.468 101.616 0.0
8.468 105.85 0.0
8.468 110.084 0.0
8.468 114.318 0.0
8.468 118.55199999999999 0.0
8.468 122.786 0.0
8.468 127.02 0.0
8.468 131.254 0.0
8.468 135.488 0.0
8.468 139.722 0.0
8.468 143.956 0.0
8.468 148.19 0.0
8.468 152.424 0.0
8.468 156.658 0.0
8.468 160.892 0.0
8.468 165.126 0.0
8.468 169.36 0.0
8.468 173.594 0.0
8.468 177.828 0.0
8.468 182.062 0.0
8.468 186.296 0.0
8.468 190.53 0.0
8.468 194.764 0.0
8.468 198.998 0.0
8.468 203.232 0.0
8.468 207.466 0.0
8.468 211.7 0.0
8.468 215.934 0.0
8.468 220.168 0.0
8.468 224.402 0.0
8.468 228.636 0.0
8.468 232.87 0.0
8.468 237.10399999999998 0.0
8.468 241.338 0.0
8.468 245.572 0.0
8.468 249.806 0.0
8.468 254.04 0.0
8.468 258.274 0.0
8.468 262.508 0.0
8.468 266.742 0.0
8.468 270.976 0.0
8.468 275.21 0.0
8.468 279.444 0.0
8.468 283.678 0.0
8.468 287.912 0.0
8.468 292.146 0.0
8.468 296.38 0.0
8.468 300.614 0.0
8.468 304.848 0.0
8.468 309.082 0.0
8.468 313.316 0.0
8.468 317.55 0.0
8.468 321.784 0.0
8.468 326.018 0.0
8.468 330.252 0.0
8.468 334.486 0.0
12.702 0.0 0.0
12.702 4.234 0.0
12.702 8.468 0.0
12.702 12.702 0.0
12.702 16.936 0.0
12.702 21.17 0.0
12.702 25.404 0.0
12.702 29.637999999999998 0.0
12.702 33.872 0.0
12.702 38.106 0.0
12.702 42.34 0.0
12.702 46.574 0.0
12.702 50.808 0.0
12.702 55.042 0.0
12.702 59.275999999999996 0.0
12.702 63.51 0.0
12.702 67.744 0.0
12.702 71.978 0.0
12.702 76.212 0.0
12.702 80.446 0.0
12.702 84.68 0.0
12.702 88.914 0.0
12.702 93.148 0.0
12.702 97.382 0.0
12.702 101.616 0.0
12.702 105.85 0.0
12.702 110.084 0.0
12.702 114.318 0.0
12.702 118.55199999999999 0.0
12.702 122.786 0.0
12.702 127.02 0.0
12.702 131.254 0.0
12.702 135.488 0.0
12.702 139.722 0.0
12.702 143.956 0.0
12.702 148.19 0.0
12.702 152.424 0.0
12.702 156.658 0.0
12.702 160.892 0.0
12.702 165.126 0.0
12.702 169.36 0.0
12.702 173.594 0.0
12.702 177.828 0.0
12.702 182.062 0.0
12.702 186.296 0.0
12.702 190.53 0.0
12.702 194.764 0.0
12.702 198.998 0.0
12.702 203.232 0.0
12.702 207.466 0.0
12.702 211.7 0.0
12.702 215.934 0.0
12.702 220.168 0.0
12.702 224.402 0.0
12.702 228.636 0.0
12.702 232.87 0.0
12.702 237.10399999999998 0.0
12.702 241.338 0.0
12.702 245.572 0.0
12.702 249.806 0.0
12.702 254.04 0.0
12.702 258.274 0.0
12.702 262.508 0.0
12.702 266.742 0.0
12.702 270.976 0.0
12.702 275.21 0.0
12.702 279.444 0.0
12.702 283.678 0.0
12.702 287.912 0.0
12.702 292.146 0.0
12.702 296.38 0.0
12.702 300.614 0.0
12.702 304.848 0.0
12.702 309.082 0.0
12.702 313.316 0.0
12.702 317.55 0.0
12.702 321.784 0.0
12.702 326.018 0.0
12.702 330.252 0.0
12.702 334.486 0.0
16.936 0.0 0.0
16.936 4.234 0.0
16.936 8.468 0.0
16.936 12.702 0.0
16.936 16.936 0.0
16.936 21.17 0.0
16.936 25.404 0.0
16.936 29.637999999999998 0.0
16.936 33.872 0.0
16.936 38.106 0.0
16.936 42.34 0.0
16.936 46.574 0.0
16.936 50.808 0.0
16.936 55.042 0.0
16.936 59.275999999999996 0.0
16.936 63.51 0.0
16.936 67.744 0.0
16.936 71.978 0.0
16.936 76.212 0.0
16.936 80.446 0.0
16.936 84.68 0.0
16.936 88.914 0.0
16.936 93.148 0.0
16.936 97.382 0.0
16.936 101.616 0.0
16.936 105.85 0.0
16.936 110.084 0.0
16.936 114.318 0.0
16.936 118.55199999999999 0.0
16.936 122.786 0.0
16.936 127.02 0.0
16.936 131.254 0.0
16.936 135.488 0.0
16.936 139.722 0.0
16.936 143.956 0.0
16.936 148.19 0.0
16.936 152.424 0.0
16.936 156.658 0.0
16.936 160.892 0.0
16.936 165.126 0.0
16.936 169.36 0.0
16.936 173.594 0.0
16.936 177.828 0.0
16.936 182.062 0.0
16.936 186.296 0.0
16.936 190.53 0.0
16.936 194.764 0.0
16.936 198.998 0.0
16.936 203.232 0.0
16.936 207.466 0.0
16.936 211.7 0.0
16.936 215.934 0.0
16.936 220.168 0.0
16.936 224.402 0.0
16.936 228.636 0.0
16.936 232.87 0.0
16.936 237.10399999999998 0.0
16.936 241.338 0.0
16.936 245.572 0.0
16.936 249.806 0.0
16.936 254.04 0.0
16.936 258.274 0.0
16.936 262.508 0.0
16.936 266.742 0.0
16.936 270.976 0.0
16.936 275.21 0.0
16.936 279.444 0.0
16.936 283.678 0.0
16.936 287.912 0.0
16.936 292.146 0.0
16.936 296.38 0.0
16.936 300.614 0.0
16.936 304.848 0.0
16.936 309.082 0.0
16.936 313.316 0.0
16.936 317.55 0.0
16.936 321.784 0.0
16.936 326.018 0.0
16.936 330.252 0.0
16.936 334.486 0.0
21.17 0.0 0.0
21.17 4.234 0.0
21.17 8.468 0.0
21.17 12.702 0.0
21.17 16.936 0.0
21.17 21.17 0.0
21.17 25.404 0.0
21.17 29.637999999999998 0.0
21.17 33.872 0.0
21.17 38.106 0.0
21.17 42.34 0.0
21.17 46.574 0.0
21.17 50.808 0.0
21.17 55.042 0.0
21.17 59.275999999999996 0.0
21.17 63.51 0.0
21.17 67.744 0.0
21.17 71.978 0.0
21.17 76.212 0.0
21.17 80.446 0.0
21.17 84.68 0.0
21.17 88.914 0.0
21.17 93.148 0.0
21.17 97.382 0.0
21.17 101.616 0.0
21.17 105.85 0.0
21.17 110.084 0.0
21.17 114.318 0.0
21.17 118.55199999999999 0.0
21.17 122.786 0.0
21.17 127.02 0.0
21.17 131.254 0.0
21.17 135.488 0.0
21.17 139.722 0.0
21.17 143.956 0.0
21.17 148.19 0.0
21.17 152.424 0.0
21.17 156.658 0.0
21.17 160.892 0.0
21.17 165.126 0.0
21.17 169.36 0.0
21.17 173.594 0.0
21.17 177.828 0.0
21.17 182.062 0.0
21.17 186.296 0.0
21.17 190.53 0.0
21.17 194.764 0.0
21.17 198.998 0.0
21.17 203.232 0.0
21.17 207.466 0.0
21.17 211.7 0.0
21.17 215.934 0.0
21.17 220.168 0.0
21.17 224.402 0.0
21.17 228.636 0.0
21.17 232.87 0.0
21.17 237.10399999999998 0.0
21.17 241.338 0.0
21.17 245.572 0.0
21.17 249.806 0.0
21.17 254.04 0.0
21.17 258.274 0.0
21.17 262.508 0.0
21.17 266.742 0.0
21.17 270.976 0.0
21.17 275.21 0.0
21.17 279.444 0.0
21.17 283.678 0.0
21.17 287.912 0.0
21.17 292.146 0.0
21.17 296.38 0.0
21.17 300.614 0.0
21.17 304.848 0.0
21.17 309.082 0.0
21.17 313.316 0.0
21.17 317.55 0.0
21.17 321.784 0.0
21.17 326.018 0.0
21.17 330.252 0.0
21.17 334.486 0.0
25.404 0.0 0.0
25.404 4.234 0.0
25.404 8.468 0.0
25.404 12.702 0.0
25.404 16.936 0.0
25.404 21.17 0.0
25.404 25.404 0.0
25.404 29.637999999999998 0.0
25.404 33.872 0.0
25.404 38.106 0.0
25.404 42.34 0.0
25.404 46.574 0.0
25.404 50.808 0.0
25.404 55.042 0.0
25.404 59.275999999999996 0.0
25.404 63.51 0.0
25.404 67.744 0.0
25.404 71.978 0.0
25.404 76.212 0.0
25.404 80.446 0.0
25.404 84.68 0.0
25.404 88.914 0.0
25.404 93.148 0.0
25.404 97.382 0.0
25.404 101.616 0.0
25.404 105.85 0.0
25.404 110.084 0.0
25.404 114.318 0.0
25.404 118.55199999999999 0.0
25.404 122.786 0.0
25.404 127.02 0.0
25.404 131.254 0.0
25.404 135.488 0.0
25.404 139.722 0.0
25.404 143.956 0.0
25.404 148.19 0.0
25.404 152.424 0.0
25.404 156.658 0.0
25.404 160.892 0.0
25.404 165.126 0.0
25.404 169.36 0.0
25.404 173.594 0.0
25.404 177.828 0.0
25.404 182.062 0.0
25.404 186.296 0.0
25.404 190.53 0.0
25.404 194.764 0.0
25.404 198.998 0.0
25.404 203.232 0.0
25.404 207.466 0.0
25.404 211.7 0.0
25.404 215.934 0.0
25.404 220.168 0.0
25.404 224.402 0.0
25.404 228.636 0.0
25.404 232.87 0.0
25.404 237.10399999999998 0.0
25.404 241.338 0.0
25.404 245.572 0.0
25.404 249.806 0.0
25.404 254.04 0.0
25.404 258.274 0.0
25.404 262.508 0.0
25.404 266.742 0.0
25.404 270.976 0.0
25.404 275.21 0.0
[...]
POINT_DATA 6400
VECTORS vector float
0.0 0.0 -0.2
0.16061343016887855 0.0 -0.11917770785422406
-0.19141540458131426 0.0 -0.057966739506132195
-0.0675110614910211 0.0 -0.1882611393154614
0.11095726894825947 0.0 -0.1663985711102821
0.19974739132120353 0.0 -0.010048863635953979
-0.12709709352695803 0.0 -0.1544225657635557
0.04827598850643529 0.0 -0.1940861379226413
0.18463131007289652 0.0 -0.0768848446754362
-0.17176337481966766 0.0 -0.10245654235117621
-0.020072342970243223 0.0 -0.19899020339626003
0.14784161655509373 0.0 -0.13469542091094502
-0.19626659283523465 0.0 -0.03846328816999681
-0.08606441006952192 0.0 -0.18053508611731175
0.09369700163611844 0.0 -0.1766942893372653
0.1977303489475828 0.0 -0.03004511782415141
-0.14195349597176943 0.0 -0.1408872065923405
0.028553426229489944 0.0 -0.19795126130074817
0.1759828148659223 0.0 -0.09502656929441643
-0.181178858745059 0.0 -0.08470077416315602
-0.03994199610288188 0.0 -0.19597101047684928
0.1335769033184214 0.0 -0.14885298418191392
-0.19913588770042887 0.0 -0.018571435856233564
-0.10374868315811155 0.0 -0.1709859957509906
0.07549058518365065 0.0 -0.18520575463151784
0.19371663222572616 0.0 -0.0497379774329712
-0.15537645683536774 0.0 -0.12592917319385175
0.008542532424227643 0.0 -0.19981747956517973
0.1655572511712653 0.0 -0.11220871884401223
-0.18876480470814744 0.0 -0.06608970043429582
-0.059408316315406995 0.0 -0.1909729089493286
0.11796333504865888 0.0 -0.16150743507404808
0.1999943151347966 0.0 -0.0015079501860712705
-0.12038530556774595 0.0 -0.15971029460670483
0.056521867365853996 0.0 -0.19184701850557076
0.1877467715307749 0.0 -0.06892858463490323
-0.16723043151483016 0.0 -0.10969951128133477
-0.011554623583328245 0.0 -0.1996659477072833
0.1534598959770359 0.0 -0.1282577885616204
-0.19444461008423689 0.0 -0.04681125515502751
-0.0782747333674414 0.0 -0.18404636947317368
0.10115857702791548 0.0 -0.17253098937201772
0.19883320676726018 0.0 -0.02157210899861109
-0.13580628125035518 0.0 -0.14682184433165732
0.03698239365102651 0.0 -0.19655101770237804
0.1798810503132739 0.0 -0.08742315333018724
-0.17739571897643736 0.0 -0.09236210742957779
-0.03153510139436404 0.0 -0.19749819589061357
0.139812907965129 0.0 -0.14301171548629985
-0.19816092039154012 0.0 -0.027060111411036328
-0.09635073482034351 0.0 -0.17526133600877247
0.08333232313195368 0.0 -0.18181233159890908
0.19566428743068054 0.0 -0.04141843338712892
-0.14985588971723235 0.0 -0.13245079205900093
0.017069472981129923 0.0 -0.19927025139781018
0.170198896358939 0.0 -0.10503492599225817
-0.18576967049264018 0.0 -0.07409203415385422
-0.05119713882253499 0.0 -0.1933361139993925
0.12475409395699817 0.0 -0.15632151496505042
-0.19987620845478984 0.0 -0.0070357155810469
-0.11345378982535133 0.0 -0.1647065195256855
0.06466458226718784 0.0 -0.18925773907613422
0.19051955676489452 0.0 -0.06084651584197848
-0.16239225849924144 0.0 -0.11674225618650494
-0.0030158146472078436 0.0 -0.19997726086236328
0.1587980797295672 0.0 -0.12158605953892095
-0.19226772618542887 0.0 -0.05507378203360441
-0.07034218928166255 0.0 -0.18722173059520297
0.10843551734506407 0.0 -0.1680527850947681
0.19957315335337888 0.0 -0.013059726665927321
-0.1294111923138885 0.0 -0.15248850220228985
0.04534386064686534 0.0 -0.1947920283318536
0.18345096608543598 0.0 -0.07966017224636306
-0.17328879577018771 0.0 -0.09985486097590932
-0.0230706486816616 0.0 -0.19866490673847598
0.1457937254842828 0.0 -0.13690942118573726
-0.1968242689091093 0.0 -0.035499396732826725
-0.08877692670242887 0.0 -0.17921678851399936
0.09102196256173045 0.0 -0.17808706390810913
0.19725481532742872 0.0 -0.03302329223657135
0.16061343016887855 0.0 -0.11917770785422406
0.19141540458131423 0.0 0.057966739506132195
0.06751106149102117 0.0 0.18826113931546137
0.11095726894825951 0.0 -0.16639857111028208
0.19974739132120353 0.0 -0.010048863635953949
0.12709709352695825 0.0 0.15442256576355554
-0.04827598850643547 0.0 0.1940861379226412
0.1846313100728965 0.0 -0.07688484467543628
0.17176337481966777 0.0 0.10245654235117595
0.02007234297024278 0.0 0.19899020339626006
0.1478416165550935 0.0 -0.1346954209109452
0.19626659283523473 0.0 0.03846328816999657
0.08606441006952151 0.0 0.18053508611731195
0.09369700163611851 0.0 -0.17669428933726528
0.1977303489475828 0.0 -0.030045117824151698
0.1419534959717694 0.0 0.1408872065923406
-0.028553426229489715 0.0 0.1979512613007482
0.17598281486592215 0.0 -0.09502656929441665
0.18117885874505868 0.0 0.08470077416315674
0.039941996102881794 0.0 0.1959710104768493
0.13357690331842095 0.0 -0.14885298418191434
0.19913588770042884 0.0 0.01857143585623369
0.10374868315811148 0.0 0.17098599575099066
0.0754905851836501 0.0 -0.18520575463151806
0.19371663222572635 0.0 -0.04973797743297044
0.15537645683536772 0.0 0.12592917319385183
-0.008542532424227013 0.0 0.19981747956517978
0.16555725117126574 0.0 -0.11220871884401154
0.18876480470814763 0.0 0.06608970043429523
0.05940831631540692 0.0 0.1909729089493286
0.1179633350486584 0.0 -0.1615074350740484
0.1999943151347966 0.0 -0.0015079501860708327
0.12038530556774588 0.0 0.15971029460670486
-0.05652186736585333 0.0 0.19184701850557095
0.18774677153077493 0.0 -0.06892858463490313
0.16723043151483052 0.0 0.10969951128133426
0.011554623583327433 0.0 0.19966594770728335
0.1534598959770364 0.0 -0.1282577885616198
0.19444461008423705 0.0 0.046811255155026904
0.07827473336744066 0.0 0.18404636947317402
0.10115857702791492 0.0 -0.17253098937201805
0.19883320676726013 0.0 -0.021572108998611728
0.13580628125035463 0.0 0.14682184433165787
-0.03698239365102595 0.0 0.19655101770237812
0.17988105031327423 0.0 -0.08742315333018652
0.17739571897643763 0.0 0.09236210742957725
0.03153510139436465 0.0 0.19749819589061351
0.13981290796512852 0.0 -0.1430117154863003
0.19816092039154 0.0 0.027060111411037147
0.09635073482034279 0.0 0.17526133600877286
0.08333232313195307 0.0 -0.1818123315989093
0.1956642874306807 0.0 -0.04141843338712816
0.14985588971723277 0.0 0.13245079205900046
-0.017069472981129322 0.0 0.19927025139781027
0.17019889635893864 0.0 -0.10503492599225871
0.18576967049263937 0.0 0.07409203415385625
0.0511971388225356 0.0 0.1933361139993923
0.12475409395699766 0.0 -0.1563215149650508
0.19987620845478984 0.0 0.00703571558104771
0.11345378982535187 0.0 0.16470651952568513
0.06466458226718706 0.0 -0.18925773907613447
0.19051955676489432 0.0 -0.06084651584197906
0.16239225849924016 0.0 0.11674225618650674
0.0030158146472084655 0.0 0.19997726086236325
0.1587980797295668 0.0 -0.12158605953892142
0.19226772618542862 0.0 0.05507378203360517
0.07034218928166315 0.0 0.18722173059520275
0.10843551734506354 0.0 -0.16805278509476845
0.1995731533533789 0.0 -0.013059726665926544
0.129411192313889 0.0 0.15248850220228946
-0.04534386064686474 0.0 0.19479202833185374
0.18345096608543573 0.0 -0.07966017224636363
0.1732887957701866 0.0 0.09985486097591124
0.02307064868166223 0.0 0.1986649067384759
0.14579372548428232 0.0 -0.1369094211857377
0.1968242689091089 0.0 0.035499396732828925
0.0887769267024294 0.0 0.1792167885139991
0.0910219625617299 0.0 -0.1780870639081094
0.1972548153274286 0.0 -0.03302329223657195
0.1440618049775812 0.0 0.1387306611625612
-0.19141540458131426 0.0 -0.057966739506132195
0.06751106149102117 0.0 0.18826113931546137
-0.11095726894825947 -0.0 0.16639857111028214
-0.1997473913212035 0.0 0.010048863635953866
0.12709709352695817 0.0 0.15442256576355562
-0.04827598850643528 0.0 0.1940861379226413
-0.18463131007289657 0.0 0.07688484467543605
-0.17176337481966794 0.0 -0.10245654235117577
0.020072342970243046 0.0 0.19899020339626006
-0.14784161655509384 -0.0 0.13469542091094486
-0.19626659283523476 0.0 -0.038463288169996314
0.08606441006952176 0.0 0.18053508611731187
-0.0936970016361189 -0.0 0.17669428933726505
-0.1977303489475828 0.0 0.030045117824151608
0.14195349597176957 0.0 0.1408872065923404
-0.028553426229489767 0.0 0.1979512613007482
-0.17598281486592204 -0.0 0.09502656929441687
-0.18117885874505882 0.0 -0.0847007741631565
0.03994199610288101 0.0 0.19597101047684948
-0.13357690331842098 -0.0 0.14885298418191426
-0.1991358877004289 0.0 -0.018571435856233054
0.10374868315811142 0.0 0.17098599575099072
-0.07549058518365016 -0.0 0.185205754631518
-0.19371663222572622 0.0 0.04973797743297104
0.15537645683536716 0.0 0.12592917319385244
-0.008542532424227115 0.0 0.19981747956517978
-0.1655572511712654 -0.0 0.11220871884401207
-0.18876480470814738 0.0 -0.06608970043429595
0.05940831631540751 0.0 0.19097290894932845
-0.11796333504865847 -0.0 0.16150743507404838
-0.1999943151347966 0.0 0.0015079501860714498
0.12038530556774524 0.0 0.15971029460670536
-0.0565218673658535 0.0 0.19184701850557093
-0.18774677153077474 0.0 0.06892858463490371
-0.1672304315148309 0.0 -0.10969951128133365
0.011554623583328065 0.0 0.19966594770728333
-0.1534598959770369 -0.0 0.12825778856161918
-0.19444461008423686 0.0 -0.04681125515502766
0.07827473336744119 0.0 0.18404636947317377
-0.10115857702791563 -0.0 0.17253098937201766
-0.19883320676726007 0.0 0.02157210899861235
0.13580628125035504 0.0 0.1468218443316575
-0.03698239365102669 0.0 0.19655101770237798
-0.17988105031327395 0.0 0.08742315333018708
-0.17739571897643724 0.0 -0.09236210742957796
0.031535101394365266 0.0 0.1974981958906134
-0.1398129079651281 -0.0 0.1430117154863007
-0.1981609203915401 0.0 -0.027060111411036536
0.09635073482034208 0.0 0.17526133600877325
-0.08333232313195385 -0.0 0.18181233159890897
-0.1956642874306806 0.0 0.041418433387128764
0.14985588971723218 0.0 0.1324507920590011
-0.017069472981128684 0.0 0.1992702513978103
-0.17019889635893834 -0.0 0.10503492599225922
-0.1857696704926396 0.0 -0.07409203415385565
0.05119713882253344 0.0 0.19333611399939288
-0.12475409395699717 -0.0 0.1563215149650512
-0.19987620845478987 0.0 -0.0070357155810470825
0.1134537898253512 0.0 0.16470651952568557
-0.06466458226718667 -0.0 0.18925773907613463
-0.19051955676489415 0.0 0.060846515841979656
0.16239225849924047 0.0 0.1167422561865063
0.003015814647206249 0.0 0.19997726086236328
-0.15879807972956644 -0.0 0.12158605953892193
-0.19226772618542878 0.0 -0.05507378203360458
0.07034218928166237 0.0 0.18722173059520306
-0.10843551734506303 -0.0 0.1680527850947688
-0.19957315335337886 0.0 0.013059726665927154
0.1294111923138884 0.0 0.15248850220229
-0.045343860646864124 0.0 0.19479202833185388
-0.18345096608543546 0.0 0.07966017224636418
-0.17328879577018697 0.0 -0.09985486097591062
0.02307064868166001 0.0 0.19866490673847614
-0.1457937254842819 -0.0 0.13690942118573818
-0.19682426890910903 0.0 -0.03549939673282832
0.08877692670242741 0.0 0.1792167885140001
-0.09102196256172934 -0.0 0.1780870639081097
-0.1972548153274285 0.0 0.03302329223657257
0.14406180497758161 0.0 0.1387306611625608
-0.02556525826172499 0.0 0.198359314301122
-0.0675110614910211 0.0 -0.1882611393154614
0.11095726894825951 0.0 -0.16639857111028208
-0.1997473913212035 0.0 0.010048863635953866
-0.12709709352695805 0.0 -0.1544225657635557
0.04827598850643545 0.0 -0.1940861379226412
-0.18463131007289652 0.0 0.07688484467543621
-0.17176337481966766 0.0 -0.10245654235117618
-0.02007234297024305 0.0 -0.19899020339626003
0.14784161655509373 0.0 -0.134695420910945
-0.19626659283523465 0.0 -0.03846328816999683
-0.08606441006952194 0.0 -0.18053508611731175
0.09369700163611874 0.0 -0.17669428933726514
-0.19773034894758287 0.0 0.03004511782415108
-0.14195349597176946 0.0 -0.14088720659234052
0.028553426229489576 0.0 -0.19795126130074822
-0.17598281486592213 0.0 0.09502656929441672
-0.18117885874505885 0.0 -0.08470077416315634
-0.03994199610288119 0.0 -0.19597101047684942
0.13357690331842162 0.0 -0.14885298418191367
-0.1991358877004289 0.0 -0.018571435856233245
-0.10374868315811188 0.0 -0.17098599575099044
0.07549058518365034 0.0 -0.18520575463151798
-0.19371663222572624 0.0 0.04973797743297087
-0.1553764568353675 0.0 -0.12592917319385202
0.00854253242422799 0.0 -0.1998174795651797
-0.1655572511712655 0.0 0.11220871884401191
-0.18876480470814758 0.0 -0.06608970043429549
-0.05940831631540666 0.0 -0.1909729089493287
0.11796333504865804 0.0 -0.16150743507404872
-0.1999943151347966 0.0 0.0015079501860712794
-0.12038530556774565 0.0 -0.15971029460670505
0.05652186736585433 0.0 -0.19184701850557068
-0.1877467715307748 0.0 0.06892858463490356
-0.16723043151483075 0.0 -0.10969951128133389
-0.011554623583327898 0.0 -0.19966594770728335
0.15345989597703635 0.0 -0.12825778856161985
-0.19444461008423664 0.0 -0.04681125515502853
-0.0782747333674404 0.0 -0.1840463694731741
0.10115857702791514 0.0 -0.1725309893720179
-0.19883320676726013 0.0 0.021572108998611464
-0.1358062812503555 0.0 -0.1468218443316571
0.03698239365102615 0.0 -0.19655101770237807
-0.17988105031327437 0.0 0.0874231533301863
-0.17739571897643752 0.0 -0.09236210742957747
-0.031535101394364405 0.0 -0.19749819589061354
0.13981290796512774 0.0 -0.14301171548630107
-0.19816092039154018 0.0 -0.027060111411035998
-0.09635073482034257 0.0 -0.175261336008773
0.08333232313195466 0.0 -0.18181233159890864
-0.19566428743068076 0.0 0.041418433387127904
-0.14985588971723257 0.0 -0.13245079205900065
0.017069472981129555 0.0 -0.19927025139781024
-0.17019889635893803 0.0 0.1050349259922597
-0.1857696704926398 0.0 -0.07409203415385517
-0.05119713882253396 0.0 -0.19333611399939277
0.12475409395699899 0.0 -0.15632151496504976
-0.1998762084547899 0.0 -0.007035715581046562
-0.11345378982535165 0.0 -0.16470651952568527
0.06466458226718752 0.0 -0.18925773907613436
-0.19051955676489396 0.0 0.06084651584198018
-0.16239225849924083 0.0 -0.11674225618650579
-0.0030158146472067746 0.0 -0.1999772608623633
-0.15879807972956783 0.0 0.12158605953892015
-0.19226772618542895 0.0 -0.05507378203360406
-0.0703421892816629 0.0 -0.18722173059520286
0.10843551734506376 0.0 -0.1680527850947683
-0.19957315335337886 0.0 0.013059726665927694
-0.1294111923138888 0.0 -0.15248850220228966
0.045343860646864985 0.0 -0.19479202833185372
-0.18345096608543524 0.0 0.07966017224636468
-0.1732887957701872 0.0 -0.09985486097591023
-0.023070648681660547 0.0 -0.1986649067384761
0.14579372548428346 0.0 -0.1369094211857365
-0.19682426890910915 0.0 -0.03549939673282779
-0.08877692670242791 0.0 -0.17921678851399986
0.0910219625617314 0.0 -0.17808706390810866
-0.19725481532742842 0.0 0.0330232922365731
-0.144061804977582 0.0 -0.13873066116256036
0.025565258261724455 0.0 -0.19835931430112208
-0.17452989378091774 0.0 0.09766942293687202
0.11095726894825947 0.0 -0.1663985711102821
0.19974739132120353 0.0 -0.010048863635953949
0.12709709352695817 0.0 0.15442256576355562
0.04827598850643545 0.0 -0.1940861379226412
0.18463131007289652 0.0 -0.0768848446754362
0.17176337481966786 0.0 0.10245654235117588
-0.02007234297024284 0.0 -0.19899020339626003
0.14784161655509362 0.0 -0.13469542091094514
0.19626659283523473 0.0 0.038463288169996473
0.08606441006952169 0.0 0.1805350861173119
0.09369700163611844 0.0 -0.17669428933726528
0.1977303489475828 0.0 -0.03004511782415142
0.14195349597176918 0.0 0.14088720659234077
0.028553426229489594 0.0 -0.19795126130074825
0.17598281486592196 0.0 -0.09502656929441704
0.18117885874505885 0.0 0.08470077416315634
-0.03994199610288154 0.0 -0.1959710104768493
0.1335769033184214 0.0 -0.14885298418191392
0.1991358877004288 0.0 0.01857143585623395
0.10374868315811188 0.0 0.17098599575099044
0.07549058518364968 0.0 -0.18520575463151823
0.19371663222572627 0.0 -0.04973797743297086
0.15537645683536752 0.0 0.12592917319385202
0.008542532424227301 0.0 -0.19981747956517978
0.16555725117126588 0.0 -0.11220871884401135
0.18876480470814758 0.0 0.06608970043429548
-0.05940831631540727 0.0 -0.1909729089493285
0.1179633350486586 0.0 -0.16150743507404827
0.1999943151347966 0.0 -0.0015079501860719839
0.12038530556774568 0.0 0.15971029460670502
0.05652186736585366 0.0 -0.19184701850557084
0.18774677153077501 0.0 -0.06892858463490288
0.16723043151483077 0.0 0.10969951128133389
-0.011554623583328582 0.0 -0.1996659477072833
0.15345989597703658 0.0 -0.12825778856161957
0.19444461008423677 0.0 0.046811255155027834
0.07827473336743968 0.0 0.18404636947317443
0.10115857702791578 0.0 -0.17253098937201755
0.1988332067672601 0.0 -0.02157210899861217
0.13580628125035496 0.0 0.14682184433165757
0.036982393651025465 0.0 -0.19655101770237823
0.17988105031327406 0.0 -0.08742315333018694
0.1773957189764372 0.0 0.09236210742957812
-0.0315351013943651 0.0 -0.19749819589061343
0.1398129079651282 0.0 -0.1430117154863006
0.19816092039154026 0.0 0.0270601114110353
0.09635073482034319 0.0 0.17526133600877267
0.08333232313195402 0.0 -0.1818123315989089
0.1956642874306809 0.0 -0.041418433387127196
0.1498558897172321 0.0 0.1324507920590012
0.017069472981128857 0.0 -0.1992702513978103
0.17019889635893842 0.0 -0.10503492599225908
0.18576967049264007 0.0 0.07409203415385453
-0.05119713882253464 0.0 -0.19333611399939257
0.12475409395699844 0.0 -0.1563215149650502
0.19987620845478982 0.0 0.007035715581048681
0.11345378982535226 0.0 0.16470651952568482
0.06466458226718684 0.0 -0.18925773907613455
0.1905195567648942 0.0 -0.06084651584197949
0.16239225849924124 0.0 0.11674225618650523
-0.003015814647207496 0.0 -0.19997726086236328
0.15879807972956742 0.0 -0.12158605953892064
0.19226772618542834 0.0 0.05507378203360609
-0.07034218928166346 0.0 -0.18722173059520264
0.10843551734506318 0.0 -0.16805278509476868
0.19957315335337888 0.0 -0.013059726665926986
0.1294111923138894 0.0 0.15248850220228916
0.0453438606468643 0.0 -0.19479202833185383
0.18345096608543554 0.0 -0.07966017224636403
0.17328879577018755 0.0 0.09985486097590962
-0.023070648681661234 0.0 -0.198664906738476
0.14579372548428302 0.0 -0.13690942118573698
0.19682426890910873 0.0 0.035499396732829876
0.08877692670242865 0.0 0.1792167885139995
0.09102196256173076 0.0 -0.17808706390810897
0.19725481532742878 0.0 -0.03302329223657099
0.1440618049775825 0.0 0.13873066116255986
0.025565258261723758 0.0 -0.19835931430112216
0.1745298937809174 0.0 -0.09766942293687264
0.18243546866678467 0.0 0.08195913477051008
0.19974739132120353 0.0 -0.010048863635953979
0.12709709352695825 0.0 0.15442256576355554
-0.04827598850643528 0.0 0.1940861379226413
-0.18463131007289652 0.0 0.07688484467543621
0.17176337481966786 0.0 0.10245654235117588
0.020072342970243223 0.0 0.19899020339626003
-0.1478416165550937 0.0 0.134695420910945
0.19626659283523476 0.0 0.038463288169996335
0.08606441006952192 0.0 0.18053508611731175
-0.09369700163611876 0.0 0.17669428933726514
-0.19773034894758276 0.0 0.030045117824151753
0.14195349597176943 0.0 0.14088720659234052
-0.028553426229489944 0.0 0.19795126130074817
-0.17598281486592196 0.0 0.09502656929441705
0.18117885874505898 0.0 0.08470077416315602
0.03994199610288153 0.0 0.19597101047684937
-0.13357690331842112 0.0 0.14885298418191414
0.19913588770042884 0.0 0.01857143585623363
0.10374868315811125 0.0 0.17098599575099083
-0.07549058518364968 0.0 0.18520575463151823
-0.19371663222572608 0.0 0.0497379774329716
0.15537645683536752 0.0 0.12592917319385202
-0.008542532424227287 0.0 0.19981747956517976
-0.1655572511712655 0.0 0.11220871884401194
0.18876480470814733 0.0 0.06608970043429614
0.05940831631540734 0.0 0.1909729089493285
-0.11796333504865802 0.0 0.1615074350740487
0.1999943151347966 0.0 -0.0015079501860711844
0.12038530556774621 0.0 0.1597102946067046
-0.05652186736585364 0.0 0.19184701850557087
-0.1877467715307748 0.0 0.06892858463490355
0.16723043151483039 0.0 0.10969951128133448
0.011554623583328599 0.0 0.1996659477072833
-0.15345989597703613 0.0 0.12825778856162015
0.1944446100842368 0.0 0.04681125515502786
0.0782747333674404 0.0 0.1840463694731741
-0.10115857702791638 0.0 0.1725309893720172
-0.1988332067672601 0.0 0.021572108998612085
0.13580628125035546 0.0 0.14682184433165713
-0.03698239365102617 0.0 0.1965510177023781
-0.17988105031327373 0.0 0.08742315333018758
0.17739571897643752 0.0 0.0923621074295775
0.03153510139436439 0.0 0.19749819589061354
-0.13981290796512771 0.0 0.14301171548630107
0.19816092039154018 0.0 0.027060111411036005
0.09635073482034381 0.0 0.17526133600877233