# vtk DataFile Version 2.0
test
ASCII
DATASET UNSTRUCTURED_GRID
POINTS 6400 float
0.0 0.0 0.0
0.0 4.234 0.0
0.0 8.468 0.0
0.0 12.702 0.0
0.0 16.936 0.0
0.0 21.17 0.0
0.0 25.404 0.0
0.0 29.637999999999998 0.0
0.0 33.872 0.0
0.0 38.106 0.0
0.0 42.34 0.0
0.0 46.574 0.0
0.0 50.808 0.0
0.0 55.042 0.0
0.0 59.275999999999996 0.0
0.0 63.51 0.0
0.0 67.744 0.0
0.0 71.978 0.0
0.0 76.212 0.0
0.0 80.446 0.0
0.0 84.68 0.0
0.0 88.914 0.0
0.0 93.148 0.0
0.0 97.382 0.0
0.0 101.616 0.0
0.0 105.85 0.0
0.0 110.084 0.0
0.0 114.318 0.0
0.0 118.55199999999999 0.0
0.0 122.786 0.0
0.0 127.02 0.0
0.0 131.254 0.0
0.0 135.488 0.0
0.0 139.722 0.0
0.0 143.956 0.0
0.0 148.19 0.0
0.0 152.424 0.0
0.0 156.658 0.0
0.0 160.892 0.0
0.0 165.126 0.0
0.0 169.36 0.0
0.0 173.594 0.0
0.0 177.828 0.0
0.0 182.062 0.0
0.0 186.296 0.0
0.0 190.53 0.0
0.0 194.764 0.0
0.0 198.998 0.0
0.0 203.232 0.0
0.0 207.466 0.0
0.0 211.7 0.0
0.0 215.934 0.0
0.0 220.168 0.0
0.0 224.402 0.0
0.0 228.636 0.0
0.0 232.87 0.0
0.0 237.10399999999998 0.0
0.0 241.338 0.0
0.0 245.572 0.0
0.0 249.806 0.0
0.0 254.04 0.0
0.0 258.274 0.0
0.0 262.508 0.0
0.0 266.742 0.0
0.0 270.976 0.0
0.0 275.21 0.0
0.0 279.444 0.0
0.0 283.678 0.0
0.0 287.912 0.0
0.0 292.146 0.0
0.0 296.38 0.0
0.0 300.614 0.0
0.0 304.848 0.0
0.0 309.082 0.0
0.0 313.316 0.0
0.0 317.55 0.0
0.0 321.784 0.0
0.0 326.018 0.0
0.0 330.252 0.0
0.0 334.486 0.0
4.234 0.0 0.0
4.234 4.234 0.0
4.234 8.468 0.0
4.234 12.702 0.0
4.234 16.936 0.0
4.234 21.17 0.0
4.234 25.404 0.0
4.234 29.637999999999998 0.0
4.234 33.872 0.0
4.234 38.106 0.0
4.234 42.34 0.0
4.234 46.574 0.0
4.234 50.808 0.0
4.234 55.042 0.0
4.234 59.275999999999996 0.0
4.234 63.51 0.0
4.234 67.744 0.0
4.234 71.978 0.0
4.234 76.212 0.0
4.234 80.446 0.0
4.234 84.68 0.0
4.234 88.914 0.0
4.234 93.148 0.0
4.234 97.382 0.0
4.234 101.616 0.0
4.234 105.85 0.0
4.234 110.084 0.0
4.234 114.318 0.0
4.234 118.55199999999999 0.0
4.234 122.786 0.0
4.234 127.02 0.0
4.234 131.254 0.0
4.234 135.488 0.0
4.234 139.722 0.0
4.234 143.956 0.0
4.234 148.19 0.0
4.234 152.424 0.0
4.234 156.658 0.0
4.234 160.892 0.0
4.234 165.126 0.0
4.234 169.36 0.0
4.234 173.594 0.0
4.234 177.828 0.0
4.234 182.062 0.0
4.234 186.296 0.0
4.234 190.53 0.0
4.234 194.764 0.0
4.234 198.998 0.0
4.234 203.232 0.0
4.234 207.466 0.0
4.234 211.7 0.0
4.234 215.934 0.0
4.234 220.168 0.0
4.234 224.402 0.0
4.234 228.636 0.0
4.234 232.87 0.0
4.234 237.10399999999998 0.0
4.234 241.338 0.0
4.234 245.572 0.0
4.234 249.806 0.0
4.234 254.04 0.0
4.234 258.274 0.0
4.234 262.508 0.0
4.234 266.742 0.0
4.234 270.976 0.0
4.234 275.21 0.0
4.234 279.444 0.0
4.234 283.678 0.0
4.234 287.912 0.0
4.234 292.146 0.0
4.234 296.38 0.0
4.234 300.614 0.0
4.234 304.848 0.0
4.234 309.082 0.0
4.234 313.316 0.0
4.234 317.55 0.0
4.234 321.784 0.0
4.234 326.018 0.0
4.234 330.252 0.0
4.234 334.486 0.0
8.468 0.0 0.0
8.468 4.234 0.0
8.468 8.468 0.0
8.468 12.702 0.0
8.468 16.936 0.0
8.468 21.17 0.0
8.468 25.404 0.0
8.468 29.637999999999998 0.0
8.468 33.872 0.0
8.468 38.106 0.0
8.468 42.34 0.0
8.468 46.574 0.0
8.468 50.808 0.0
8.468 55.042 0.0
8.468 59.275999999999996 0.0
8.468 63.51 0.0
8.468 67.744 0.0
8.468 71.978 0.0
8.468 76.212 0.0
8.468 80.446 0.0
8.468 84.68 0.0
8.468 88.914 0.0
8.468 93.148 0.0
8.468 97.382 0.0
8.468 101.616 0.0
8.468 105.85 0.0
8.468 110.084 0.0
8.468 114.318 0.0
8.468 118.55199999999999 0.0
8.468 122.786 0.0
8.468 127.02 0.0
8.468 131.254 0.0
8.468 135.488 0.0
8.468 139.722 0.0
8.468 143.956 0.0
8.468 148.19 0.0
8.468 152.424 0.0
8.468 156.658 0.0
8.468 160.892 0.0
8.468 165.126 0.0
8.468 169.36 0.0
8.468 173.594 0.0
8.468 177.828 0.0
8.468 182.062 0.0
8.468 186.296 0.0
8.468 190.53 0.0
8.468 194.764 0.0
8.468 198.998 0.0
8.468 203.232 0.0
8.468 207.466 0.0
8.468 211.7 0.0
8.468 215.934 0.0
8.468 220.168 0.0
8.468 224.402 0.0
8.468 228.636 0.0
8.468 232.87 0.0
8.468 237.10399999999998 0.0
8.468 241.338 0.0
8.468 245.572 0.0
8.468 249.806 0.0
8.468 254.04 0.0
8.468 258.274 0.0
8.468 262.508 0.0
8.468 266.742 0.0
8.468 270.976 0.0
8.468 275.21 0.0
8.468 279.444 0.0
8.468 283.678 0.0
8.468 287.912 0.0
8.468 292.146 0.0
8.468 296.38 0.0
8.468 300.614 0.0
8.468 304.848 0.0
8.468 309.082 0.0
8.468 313.316 0.0
8.468 317.55 0.0
8.468 321.784 0.0
8.468 326.018 0.0
8.468 330.252 0.0
8.468 334.486 0.0
12.702 0.0 0.0
12.702 4.234 0.0
12.702 8.468 0.0
12.702 12.702 0.0
12.702 16.936 0.0
12.702 21.17 0.0
12.702 25.404 0.0
12.702 29.637999999999998 0.0
12.702 33.872 0.0
12.702 38.106 0.0
12.702 42.34 0.0
12.702 46.574 0.0
12.702 50.808 0.0
12.702 55.042 0.0
12.702 59.275999999999996 0.0
12.702 63.51 0.0
12.702 67.744 0.0
12.702 71.978 0.0
12.702 76.212 0.0
12.702 80.446 0.0
12.702 84.68 0.0
12.702 88.914 0.0
12.702 93.148 0.0
12.702 97.382 0.0
12.702 101.616 0.0
12.702 105.85 0.0
12.702 110.084 0.0
12.702 114.318 0.0
12.702 118.55199999999999 0.0
12.702 122.786 0.0
12.702 127.02 0.0
12.702 131.254 0.0
12.702 135.488 0.0
12.702 139.722 0.0
12.702 143.956 0.0
12.702 148.19 0.0
12.702 152.424 0.0
12.702 156.658 0.0
12.702 160.892 0.0
12.702 165.126 0.0
12.702 169.36 0.0
12.702 173.594 0.0
12.702 177.828 0.0
12.702 182.062 0.0
12.702 186.296 0.0
12.702 190.53 0.0
12.702 194.764 0.0
12.702 198.998 0.0
12.702 203.232 0.0
12.702 207.466 0.0
12.702 211.7 0.0
12.702 215.934 0.0
12.702 220.168 0.0
12.702 224.402 0.0
12.702 228.636 0.0
12.702 232.87 0.0
12.702 237.10399999999998 0.0
12.702 241.338 0.0
12.702 245.572 0.0
12.702 249.806 0.0
12.702 254.04 0.0
12.702 258.274 0.0
12.702 262.508 0.0
12.702 266.742 0.0
12.702 270.976 0.0
12.702 275.21 0.0
12.702 279.444 0.0
12.702 283.678 0.0
12.702 287.912 0.0
12.702 292.146 0.0
12.702 296.38 0.0
12.702 300.614 0.0
12.702 304.848 0.0
12.702 309.082 0.0
12.702 313.316 0.0
12.702 317.55 0.0
12.702 321.784 0.0
12.702 326.018 0.0
12.702 330.252 0.0
12.702 334.486 0.0
16.936 0.0 0.0
16.936 4.234 0.0
16.936 8.468 0.0
16.936 12.702 0.0
16.936 16.936 0.0
16.936 21.17 0.0
16.936 25.404 0.0
16.936 29.637999999999998 0.0
16.936 33.872 0.0
16.936 38.106 0.0
16.936 42.34 0.0
16.936 46.574 0.0
16.936 50.808 0.0
16.936 55.042 0.0
16.936 59.275999999999996 0.0
16.936 63.51 0.0
16.936 67.744 0.0
16.936 71.978 0.0
16.936 76.212 0.0
16.936 80.446 0.0
16.936 84.68 0.0
16.936 88.914 0.0
16.936 93.148 0.0
16.936 97.382 0.0
16.936 101.616 0.0
16.936 105.85 0.0
16.936 110.084 0.0
16.936 114.318 0.0
16.936 118.55199999999999 0.0
16.936 122.786 0.0
16.936 127.02 0.0
16.936 131.254 0.0
16.936 135.488 0.0
16.936 139.722 0.0
16.936 143.956 0.0
16.936 148.19 0.0
16.936 152.424 0.0
16.936 156.658 0.0
16.936 160.892 0.0
16.936 165.126 0.0
16.936 169.36 0.0
16.936 173.594 0.0
16.936 177.828 0.0
16.936 182.062 0.0
16.936 186.296 0.0
16.936 190.53 0.0
16.936 194.764 0.0
16.936 198.998 0.0
16.936 203.232 0.0
16.936 207.466 0.0
16.936 211.7 0.0
16.936 215.934 0.0
16.936 220.168 0.0
16.936 224.402 0.0
16.936 228.636 0.0
16.936 232.87 0.0
16.936 237.10399999999998 0.0
16.936 241.338 0.0
16.936 245.572 0.0
16.936 249.806 0.0
16.936 254.04 0.0
16.936 258.274 0.0
16.936 262.508 0.0
16.936 266.742 0.0
16.936 270.976 0.0
16.936 275.21 0.0
16.936 279.444 0.0
16.936 283.678 0.0
16.936 287.912 0.0
16.936 292.146 0.0
16.936 296.38 0.0
16.936 300.614 0.0
16.936 304.848 0.0
16.936 309.082 0.0
16.936 313.316 0.0
16.936 317.55 0.0
16.936 321.784 0.0
16.936 326.018 0.0
16.936 330.252 0.0
16.936 334.486 0.0
21.17 0.0 0.0
21.17 4.234 0.0
21.17 8.468 0.0
21.17 12.702 0.0
21.17 16.936 0.0
21.17 21.17 0.0
21.17 25.404 0.0
21.17 29.637999999999998 0.0
21.17 33.872 0.0
21.17 38.106 0.0
21.17 42.34 0.0
21.17 46.574 0.0
21.17 50.808 0.0
21.17 55.042 0.0
21.17 59.275999999999996 0.0
21.17 63.51 0.0
21.17 67.744 0.0
21.17 71.978 0.0
21.17 76.212 0.0
21.17 80.446 0.0
21.17 84.68 0.0
21.17 88.914 0.0
21.17 93.148 0.0
21.17 97.382 0.0
21.17 101.616 0.0
21.17 105.85 0.0
21.17 110.084 0.0
21.17 114.318 0.0
21.17 118.55199999999999 0.0
21.17 122.786 0.0
21.17 127.02 0.0
21.17 131.254 0.0
21.17 135.488 0.0
21.17 139.722 0.0
21.17 143.956 0.0
21.17 148.19 0.0
21.17 152.424 0.0
21.17 156.658 0.0
21.17 160.892 0.0
21.17 165.126 0.0
21.17 169.36 0.0
21.17 173.594 0.0
21.17 177.828 0.0
21.17 182.062 0.0
21.17 186.296 0.0
21.17 190.53 0.0
21.17 194.764 0.0
21.17 198.998 0.0
21.17 203.232 0.0
21.17 207.466 0.0
21.17 211.7 0.0
21.17 215.934 0.0
21.17 220.168 0.0
21.17 224.402 0.0
21.17 228.636 0.0
21.17 232.87 0.0
21.17 237.10399999999998 0.0
21.17 241.338 0.0
21.17 245.572 0.0
21.17 249.806 0.0
21.17 254.04 0.0
21.17 258.274 0.0
21.17 262.508 0.0
21.17 266.742 0.0
21.17 270.976 0.0
21.17 275.21 0.0
21.17 279.444 0.0
21.17 283.678 0.0
21.17 287.912 0.0
21.17 292.146 0.0
21.17 296.38 0.0
21.17 300.614 0.0
21.17 304.848 0.0
21.17 309.082 0.0
21.17 313.316 0.0
21.17 317.55 0.0
21.17 321.784 0.0
21.17 326.018 0.0
21.17 330.252 0.0
21.17 334.486 0.0
25.404 0.0 0.0
25.404 4.234 0.0
25.404 8.468 0.0
25.404 12.702 0.0
25.404 16.936 0.0
25.404 21.17 0.0
25.404 25.404 0.0
25.404 29.637999999999998 0.0
25.404 33.872 0.0
25.404 38.106 0.0
25.404 42.34 0.0
25.404 46.574 0.0
25.404 50.808 0.0
25.404 55.042 0.0
25.404 59.275999999999996 0.0
25.404 63.51 0.0
25.404 67.744 0.0
25.404 71.978 0.0
25.404 76.212 0.0
25.404 80.446 0.0
25.404 84.68 0.0
25.404 88.914 0.0
25.404 93.148 0.0
25.404 97.382 0.0
25.404 101.616 0.0
25.404 105.85 0.0
25.404 110.084 0.0
25.404 114.318 0.0
25.404 118.55199999999999 0.0
25.404 122.786 0.0
25.404 127.02 0.0
25.404 131.254 0.0
25.404 135.488 0.0
25.404 139.722 0.0
25.404 143.956 0.0
25.404 148.19 0.0
25.404 152.424 0.0
25.404 156.658 0.0
25.404 160.892 0.0
25.404 165.126 0.0
25.404 169.36 0.0
25.404 173.594 0.0
25.404 177.828 0.0
25.404 182.062 0.0
25.404 186.296 0.0
25.404 190.53 0.0
25.404 194.764 0.0
25.404 198.998 0.0
25.404 203.232 0.0
25.404 207.466 0.0
25.404 211.7 0.0
25.404 215.934 0.0
25.404 220.168 0.0
25.404 224.402 0.0
25.404 228.636 0.0
25.404 232.87 0.0
25.404 237.10399999999998 0.0
25.404 241.338 0.0
25.404 245.572 0.0
25.404 249.806 0.0
25.404 254.04 0.0
25.404 258.274 0.0
25.404 262.508 0.0
25.404 266.742 0.0
25.404 270.976 0.0
25.404 275.21 0.0
[...]
POINT_DATA 6400
VECTORS vector float
0.0 0.0 -0.2
0.0 0.0 -0.2
0.0 0.0 -0.2
0.0 0.0 -0.2
0.0 0.0 -0.2
0.0 0.0 -0.2
0.0 0.0 -0.2
0.0 0.0 -0.2
0.0 0.0 -0.2
0.0 0.0 -0.2
0.0 0.0 -0.2
0.0 0.0 -0.2
0.0 0.0 -0.2
0.0 0.0 -0.2
0.0 0.0 -0.2
0.0 0.0 -0.2
0.0 0.0 -0.2
0.0 0.0 -0.2
0.0 0.0 -0.2
0.0 0.0 -0.2
0.0 0.0 -0.2
0.0 0.0 -0.2
0.0 0.0 -0.2
0.0 0.0 -0.2
0.0 0.0 -0.2
0.0 0.0 -0.2
0.0 0.0 -0.2
0.0 0.0 -0.2
0.0 0.0 -0.2
0.0 0.0 -0.2
0.0 0.0 -0.2
0.0 0.0 -0.2
0.0 0.0 -0.2
0.0 0.0 -0.2
0.0 0.0 -0.2
0.0 0.0 -0.2
0.0 0.0 -0.2
0.0 0.0 -0.2
0.0 0.0 -0.2
0.0 0.0 -0.2
0.0 0.0 -0.2
0.0 0.0 -0.2
0.0 0.0 -0.2
0.0 0.0 -0.2
0.0 0.0 -0.2
0.0 0.0 -0.2
0.0 0.0 -0.2
0.0 0.0 -0.2
0.0 0.0 -0.2
0.0 0.0 -0.2
0.0 0.0 -0.2
0.0 0.0 -0.2
0.0 0.0 -0.2
0.0 0.0 -0.2
0.0 0.0 -0.2
0.0 0.0 -0.2
0.0 0.0 -0.2
0.0 0.0 -0.2
0.0 0.0 -0.2
0.0 0.0 -0.2
0.0 0.0 -0.2
0.0 0.0 -0.2
0.0 0.0 -0.2
0.0 0.0 -0.2
0.0 0.0 -0.2
0.0 0.0 -0.2
0.0 0.0 -0.2
0.0 0.0 -0.2
0.0 0.0 -0.2
0.0 0.0 -0.2
0.0 0.0 -0.2
0.0 0.0 -0.2
0.0 0.0 -0.2
0.0 0.0 -0.2
0.0 0.0 -0.2
0.0 0.0 -0.2
0.0 0.0 -0.2
0.0 0.0 -0.2
0.0 0.0 -0.2
0.0 0.0 -0.2
0.19141540458131423 0.0 0.057966739506132195
0.19141540458131423 0.0 0.057966739506132195
0.19141540458131423 0.0 0.057966739506132195
0.19141540458131423 0.0 0.057966739506132195
0.19141540458131423 0.0 0.057966739506132195
0.19141540458131423 0.0 0.057966739506132195
0.19141540458131423 0.0 0.057966739506132195
0.19141540458131423 0.0 0.057966739506132195
0.19141540458131423 0.0 0.057966739506132195
0.19141540458131423 0.0 0.057966739506132195
0.19141540458131423 0.0 0.057966739506132195
0.19141540458131423 0.0 0.057966739506132195
0.19141540458131423 0.0 0.057966739506132195
0.19141540458131423 0.0 0.057966739506132195
0.19141540458131423 0.0 0.057966739506132195
0.19141540458131423 0.0 0.057966739506132195
0.19141540458131423 0.0 0.057966739506132195
0.19141540458131423 0.0 0.057966739506132195
0.19141540458131423 0.0 0.057966739506132195
0.19141540458131423 0.0 0.057966739506132195
0.19141540458131423 0.0 0.057966739506132195
0.19141540458131423 0.0 0.057966739506132195
0.19141540458131423 0.0 0.057966739506132195
0.19141540458131423 0.0 0.057966739506132195
0.19141540458131423 0.0 0.057966739506132195
0.19141540458131423 0.0 0.057966739506132195
0.19141540458131423 0.0 0.057966739506132195
0.19141540458131423 0.0 0.057966739506132195
0.19141540458131423 0.0 0.057966739506132195
0.19141540458131423 0.0 0.057966739506132195
0.19141540458131423 0.0 0.057966739506132195
0.19141540458131423 0.0 0.057966739506132195
0.19141540458131423 0.0 0.057966739506132195
0.19141540458131423 0.0 0.057966739506132195
0.19141540458131423 0.0 0.057966739506132195
0.19141540458131423 0.0 0.057966739506132195
0.19141540458131423 0.0 0.057966739506132195
0.19141540458131423 0.0 0.057966739506132195
0.19141540458131423 0.0 0.057966739506132195
0.19141540458131423 0.0 0.057966739506132195
0.19141540458131423 0.0 0.057966739506132195
0.19141540458131423 0.0 0.057966739506132195
0.19141540458131423 0.0 0.057966739506132195
0.19141540458131423 0.0 0.057966739506132195
0.19141540458131423 0.0 0.057966739506132195
0.19141540458131423 0.0 0.057966739506132195
0.19141540458131423 0.0 0.057966739506132195
0.19141540458131423 0.0 0.057966739506132195
0.19141540458131423 0.0 0.057966739506132195
0.19141540458131423 0.0 0.057966739506132195
0.19141540458131423 0.0 0.057966739506132195
0.19141540458131423 0.0 0.057966739506132195
0.19141540458131423 0.0 0.057966739506132195
0.19141540458131423 0.0 0.057966739506132195
0.19141540458131423 0.0 0.057966739506132195
0.19141540458131423 0.0 0.057966739506132195
0.19141540458131423 0.0 0.057966739506132195
0.19141540458131423 0.0 0.057966739506132195
0.19141540458131423 0.0 0.057966739506132195
0.19141540458131423 0.0 0.057966739506132195
0.19141540458131423 0.0 0.057966739506132195
0.19141540458131423 0.0 0.057966739506132195
0.19141540458131423 0.0 0.057966739506132195
0.19141540458131423 0.0 0.057966739506132195
0.19141540458131423 0.0 0.057966739506132195
0.19141540458131423 0.0 0.057966739506132195
0.19141540458131423 0.0 0.057966739506132195
0.19141540458131423 0.0 0.057966739506132195
0.19141540458131423 0.0 0.057966739506132195
0.19141540458131423 0.0 0.057966739506132195
0.19141540458131423 0.0 0.057966739506132195
0.19141540458131423 0.0 0.057966739506132195
0.19141540458131423 0.0 0.057966739506132195
0.19141540458131423 0.0 0.057966739506132195
0.19141540458131423 0.0 0.057966739506132195
0.19141540458131423 0.0 0.057966739506132195
0.19141540458131423 0.0 0.057966739506132195
0.19141540458131423 0.0 0.057966739506132195
0.19141540458131423 0.0 0.057966739506132195
0.19141540458131423 0.0 0.057966739506132195
-0.11095726894825947 -0.0 0.16639857111028214
-0.11095726894825947 -0.0 0.16639857111028214
-0.11095726894825947 -0.0 0.16639857111028214
-0.11095726894825947 -0.0 0.16639857111028214
-0.11095726894825947 -0.0 0.16639857111028214
-0.11095726894825947 -0.0 0.16639857111028214
-0.11095726894825947 -0.0 0.16639857111028214
-0.11095726894825947 -0.0 0.16639857111028214
-0.11095726894825947 -0.0 0.16639857111028214
-0.11095726894825947 -0.0 0.16639857111028214
-0.11095726894825947 -0.0 0.16639857111028214
-0.11095726894825947 -0.0 0.16639857111028214
-0.11095726894825947 -0.0 0.16639857111028214
-0.11095726894825947 -0.0 0.16639857111028214
-0.11095726894825947 -0.0 0.16639857111028214
-0.11095726894825947 -0.0 0.16639857111028214
-0.11095726894825947 -0.0 0.16639857111028214
-0.11095726894825947 -0.0 0.16639857111028214
-0.11095726894825947 -0.0 0.16639857111028214
-0.11095726894825947 -0.0 0.16639857111028214
-0.11095726894825947 -0.0 0.16639857111028214
-0.11095726894825947 -0.0 0.16639857111028214
-0.11095726894825947 -0.0 0.16639857111028214
-0.11095726894825947 -0.0 0.16639857111028214
-0.11095726894825947 -0.0 0.16639857111028214
-0.11095726894825947 -0.0 0.16639857111028214
-0.11095726894825947 -0.0 0.16639857111028214
-0.11095726894825947 -0.0 0.16639857111028214
-0.11095726894825947 -0.0 0.16639857111028214
-0.11095726894825947 -0.0 0.16639857111028214
-0.11095726894825947 -0.0 0.16639857111028214
-0.11095726894825947 -0.0 0.16639857111028214
-0.11095726894825947 -0.0 0.16639857111028214
-0.11095726894825947 -0.0 0.16639857111028214
-0.11095726894825947 -0.0 0.16639857111028214
-0.11095726894825947 -0.0 0.16639857111028214
-0.11095726894825947 -0.0 0.16639857111028214
-0.11095726894825947 -0.0 0.16639857111028214
-0.11095726894825947 -0.0 0.16639857111028214
-0.11095726894825947 -0.0 0.16639857111028214
-0.11095726894825947 -0.0 0.16639857111028214
-0.11095726894825947 -0.0 0.16639857111028214
-0.11095726894825947 -0.0 0.16639857111028214
-0.11095726894825947 -0.0 0.16639857111028214
-0.11095726894825947 -0.0 0.16639857111028214
-0.11095726894825947 -0.0 0.16639857111028214
-0.11095726894825947 -0.0 0.16639857111028214
-0.11095726894825947 -0.0 0.16639857111028214
-0.11095726894825947 -0.0 0.16639857111028214
-0.11095726894825947 -0.0 0.16639857111028214
-0.11095726894825947 -0.0 0.16639857111028214
-0.11095726894825947 -0.0 0.16639857111028214
-0.11095726894825947 -0.0 0.16639857111028214
-0.11095726894825947 -0.0 0.16639857111028214
-0.11095726894825947 -0.0 0.16639857111028214
-0.11095726894825947 -0.0 0.16639857111028214
-0.11095726894825947 -0.0 0.16639857111028214
-0.11095726894825947 -0.0 0.16639857111028214
-0.11095726894825947 -0.0 0.16639857111028214
-0.11095726894825947 -0.0 0.16639857111028214
-0.11095726894825947 -0.0 0.16639857111028214
-0.11095726894825947 -0.0 0.16639857111028214
-0.11095726894825947 -0.0 0.16639857111028214
-0.11095726894825947 -0.0 0.16639857111028214
-0.11095726894825947 -0.0 0.16639857111028214
-0.11095726894825947 -0.0 0.16639857111028214
-0.11095726894825947 -0.0 0.16639857111028214
-0.11095726894825947 -0.0 0.16639857111028214
-0.11095726894825947 -0.0 0.16639857111028214
-0.11095726894825947 -0.0 0.16639857111028214
-0.11095726894825947 -0.0 0.16639857111028214
-0.11095726894825947 -0.0 0.16639857111028214
-0.11095726894825947 -0.0 0.16639857111028214
-0.11095726894825947 -0.0 0.16639857111028214
-0.11095726894825947 -0.0 0.16639857111028214
-0.11095726894825947 -0.0 0.16639857111028214
-0.11095726894825947 -0.0 0.16639857111028214
-0.11095726894825947 -0.0 0.16639857111028214
-0.11095726894825947 -0.0 0.16639857111028214
-0.11095726894825947 -0.0 0.16639857111028214
-0.12709709352695805 0.0 -0.1544225657635557
-0.12709709352695805 0.0 -0.1544225657635557
-0.12709709352695805 0.0 -0.1544225657635557
-0.12709709352695805 0.0 -0.1544225657635557
-0.12709709352695805 0.0 -0.1544225657635557
-0.12709709352695805 0.0 -0.1544225657635557
-0.12709709352695805 0.0 -0.1544225657635557
-0.12709709352695805 0.0 -0.1544225657635557
-0.12709709352695805 0.0 -0.1544225657635557
-0.12709709352695805 0.0 -0.1544225657635557
-0.12709709352695805 0.0 -0.1544225657635557
-0.12709709352695805 0.0 -0.1544225657635557
-0.12709709352695805 0.0 -0.1544225657635557
-0.12709709352695805 0.0 -0.1544225657635557
-0.12709709352695805 0.0 -0.1544225657635557
-0.12709709352695805 0.0 -0.1544225657635557
-0.12709709352695805 0.0 -0.1544225657635557
-0.12709709352695805 0.0 -0.1544225657635557
-0.12709709352695805 0.0 -0.1544225657635557
-0.12709709352695805 0.0 -0.1544225657635557
-0.12709709352695805 0.0 -0.1544225657635557
-0.12709709352695805 0.0 -0.1544225657635557
-0.12709709352695805 0.0 -0.1544225657635557
-0.12709709352695805 0.0 -0.1544225657635557
-0.12709709352695805 0.0 -0.1544225657635557
-0.12709709352695805 0.0 -0.1544225657635557
-0.12709709352695805 0.0 -0.1544225657635557
-0.12709709352695805 0.0 -0.1544225657635557
-0.12709709352695805 0.0 -0.1544225657635557
-0.12709709352695805 0.0 -0.1544225657635557
-0.12709709352695805 0.0 -0.1544225657635557
-0.12709709352695805 0.0 -0.1544225657635557
-0.12709709352695805 0.0 -0.1544225657635557
-0.12709709352695805 0.0 -0.1544225657635557
-0.12709709352695805 0.0 -0.1544225657635557
-0.12709709352695805 0.0 -0.1544225657635557
-0.12709709352695805 0.0 -0.1544225657635557
-0.12709709352695805 0.0 -0.1544225657635557
-0.12709709352695805 0.0 -0.1544225657635557
-0.12709709352695805 0.0 -0.1544225657635557
-0.12709709352695805 0.0 -0.1544225657635557
-0.12709709352695805 0.0 -0.1544225657635557
-0.12709709352695805 0.0 -0.1544225657635557
-0.12709709352695805 0.0 -0.1544225657635557
-0.12709709352695805 0.0 -0.1544225657635557
-0.12709709352695805 0.0 -0.1544225657635557
-0.12709709352695805 0.0 -0.1544225657635557
-0.12709709352695805 0.0 -0.1544225657635557
-0.12709709352695805 0.0 -0.1544225657635557
-0.12709709352695805 0.0 -0.1544225657635557
-0.12709709352695805 0.0 -0.1544225657635557
-0.12709709352695805 0.0 -0.1544225657635557
-0.12709709352695805 0.0 -0.1544225657635557
-0.12709709352695805 0.0 -0.1544225657635557
-0.12709709352695805 0.0 -0.1544225657635557
-0.12709709352695805 0.0 -0.1544225657635557
-0.12709709352695805 0.0 -0.1544225657635557
-0.12709709352695805 0.0 -0.1544225657635557
-0.12709709352695805 0.0 -0.1544225657635557
-0.12709709352695805 0.0 -0.1544225657635557
-0.12709709352695805 0.0 -0.1544225657635557
-0.12709709352695805 0.0 -0.1544225657635557
-0.12709709352695805 0.0 -0.1544225657635557
-0.12709709352695805 0.0 -0.1544225657635557
-0.12709709352695805 0.0 -0.1544225657635557
-0.12709709352695805 0.0 -0.1544225657635557
-0.12709709352695805 0.0 -0.1544225657635557
-0.12709709352695805 0.0 -0.1544225657635557
-0.12709709352695805 0.0 -0.1544225657635557
-0.12709709352695805 0.0 -0.1544225657635557
-0.12709709352695805 0.0 -0.1544225657635557
-0.12709709352695805 0.0 -0.1544225657635557
-0.12709709352695805 0.0 -0.1544225657635557
-0.12709709352695805 0.0 -0.1544225657635557
-0.12709709352695805 0.0 -0.1544225657635557
-0.12709709352695805 0.0 -0.1544225657635557
-0.12709709352695805 0.0 -0.1544225657635557
-0.12709709352695805 0.0 -0.1544225657635557
-0.12709709352695805 0.0 -0.1544225657635557
-0.12709709352695805 0.0 -0.1544225657635557
0.18463131007289652 0.0 -0.0768848446754362
0.18463131007289652 0.0 -0.0768848446754362
0.18463131007289652 0.0 -0.0768848446754362
0.18463131007289652 0.0 -0.0768848446754362
0.18463131007289652 0.0 -0.0768848446754362
0.18463131007289652 0.0 -0.0768848446754362
0.18463131007289652 0.0 -0.0768848446754362
0.18463131007289652 0.0 -0.0768848446754362
0.18463131007289652 0.0 -0.0768848446754362
0.18463131007289652 0.0 -0.0768848446754362
0.18463131007289652 0.0 -0.0768848446754362
0.18463131007289652 0.0 -0.0768848446754362
0.18463131007289652 0.0 -0.0768848446754362
0.18463131007289652 0.0 -0.0768848446754362
0.18463131007289652 0.0 -0.0768848446754362
0.18463131007289652 0.0 -0.0768848446754362
0.18463131007289652 0.0 -0.0768848446754362
0.18463131007289652 0.0 -0.0768848446754362
0.18463131007289652 0.0 -0.0768848446754362
0.18463131007289652 0.0 -0.0768848446754362
0.18463131007289652 0.0 -0.0768848446754362
0.18463131007289652 0.0 -0.0768848446754362
0.18463131007289652 0.0 -0.0768848446754362
0.18463131007289652 0.0 -0.0768848446754362
0.18463131007289652 0.0 -0.0768848446754362
0.18463131007289652 0.0 -0.0768848446754362
0.18463131007289652 0.0 -0.0768848446754362
0.18463131007289652 0.0 -0.0768848446754362
0.18463131007289652 0.0 -0.0768848446754362
0.18463131007289652 0.0 -0.0768848446754362
0.18463131007289652 0.0 -0.0768848446754362
0.18463131007289652 0.0 -0.0768848446754362
0.18463131007289652 0.0 -0.0768848446754362
0.18463131007289652 0.0 -0.0768848446754362
0.18463131007289652 0.0 -0.0768848446754362
0.18463131007289652 0.0 -0.0768848446754362
0.18463131007289652 0.0 -0.0768848446754362
0.18463131007289652 0.0 -0.0768848446754362
0.18463131007289652 0.0 -0.0768848446754362
0.18463131007289652 0.0 -0.0768848446754362
0.18463131007289652 0.0 -0.0768848446754362
0.18463131007289652 0.0 -0.0768848446754362
0.18463131007289652 0.0 -0.0768848446754362
0.18463131007289652 0.0 -0.0768848446754362
0.18463131007289652 0.0 -0.0768848446754362
0.18463131007289652 0.0 -0.0768848446754362
0.18463131007289652 0.0 -0.0768848446754362
0.18463131007289652 0.0 -0.0768848446754362
0.18463131007289652 0.0 -0.0768848446754362
0.18463131007289652 0.0 -0.0768848446754362
0.18463131007289652 0.0 -0.0768848446754362
0.18463131007289652 0.0 -0.0768848446754362
0.18463131007289652 0.0 -0.0768848446754362
0.18463131007289652 0.0 -0.0768848446754362
0.18463131007289652 0.0 -0.0768848446754362
0.18463131007289652 0.0 -0.0768848446754362
0.18463131007289652 0.0 -0.0768848446754362
0.18463131007289652 0.0 -0.0768848446754362
0.18463131007289652 0.0 -0.0768848446754362
0.18463131007289652 0.0 -0.0768848446754362
0.18463131007289652 0.0 -0.0768848446754362
0.18463131007289652 0.0 -0.0768848446754362
0.18463131007289652 0.0 -0.0768848446754362
0.18463131007289652 0.0 -0.0768848446754362
0.18463131007289652 0.0 -0.0768848446754362
0.18463131007289652 0.0 -0.0768848446754362
0.18463131007289652 0.0 -0.0768848446754362
0.18463131007289652 0.0 -0.0768848446754362
0.18463131007289652 0.0 -0.0768848446754362
0.18463131007289652 0.0 -0.0768848446754362
0.18463131007289652 0.0 -0.0768848446754362
0.18463131007289652 0.0 -0.0768848446754362
0.18463131007289652 0.0 -0.0768848446754362
0.18463131007289652 0.0 -0.0768848446754362
0.18463131007289652 0.0 -0.0768848446754362
0.18463131007289652 0.0 -0.0768848446754362
0.18463131007289652 0.0 -0.0768848446754362
0.18463131007289652 0.0 -0.0768848446754362
0.18463131007289652 0.0 -0.0768848446754362
0.18463131007289652 0.0 -0.0768848446754362
0.020072342970243223 0.0 0.19899020339626003
0.020072342970243223 0.0 0.19899020339626003
0.020072342970243223 0.0 0.19899020339626003
0.020072342970243223 0.0 0.19899020339626003
0.020072342970243223 0.0 0.19899020339626003
0.020072342970243223 0.0 0.19899020339626003
0.020072342970243223 0.0 0.19899020339626003
0.020072342970243223 0.0 0.19899020339626003
0.020072342970243223 0.0 0.19899020339626003
0.020072342970243223 0.0 0.19899020339626003
0.020072342970243223 0.0 0.19899020339626003
0.020072342970243223 0.0 0.19899020339626003
0.020072342970243223 0.0 0.19899020339626003
0.020072342970243223 0.0 0.19899020339626003
0.020072342970243223 0.0 0.19899020339626003
0.020072342970243223 0.0 0.19899020339626003
0.020072342970243223 0.0 0.19899020339626003
0.020072342970243223 0.0 0.19899020339626003
0.020072342970243223 0.0 0.19899020339626003
0.020072342970243223 0.0 0.19899020339626003
0.020072342970243223 0.0 0.19899020339626003
0.020072342970243223 0.0 0.19899020339626003
0.020072342970243223 0.0 0.19899020339626003
0.020072342970243223 0.0 0.19899020339626003
0.020072342970243223 0.0 0.19899020339626003
0.020072342970243223 0.0 0.19899020339626003
0.020072342970243223 0.0 0.19899020339626003
0.020072342970243223 0.0 0.19899020339626003
0.020072342970243223 0.0 0.19899020339626003
0.020072342970243223 0.0 0.19899020339626003
0.020072342970243223 0.0 0.19899020339626003
0.020072342970243223 0.0 0.19899020339626003
0.020072342970243223 0.0 0.19899020339626003
0.020072342970243223 0.0 0.19899020339626003
0.020072342970243223 0.0 0.19899020339626003
0.020072342970243223 0.0 0.19899020339626003
0.020072342970243223 0.0 0.19899020339626003
0.020072342970243223 0.0 0.19899020339626003
0.020072342970243223 0.0 0.19899020339626003
0.020072342970243223 0.0 0.19899020339626003
0.020072342970243223 0.0 0.19899020339626003
0.020072342970243223 0.0 0.19899020339626003
0.020072342970243223 0.0 0.19899020339626003
0.020072342970243223 0.0 0.19899020339626003
0.020072342970243223 0.0 0.19899020339626003
0.020072342970243223 0.0 0.19899020339626003
0.020072342970243223 0.0 0.19899020339626003
0.020072342970243223 0.0 0.19899020339626003
0.020072342970243223 0.0 0.19899020339626003
0.020072342970243223 0.0 0.19899020339626003
0.020072342970243223 0.0 0.19899020339626003
0.020072342970243223 0.0 0.19899020339626003
0.020072342970243223 0.0 0.19899020339626003
0.020072342970243223 0.0 0.19899020339626003
0.020072342970243223 0.0 0.19899020339626003
0.020072342970243223 0.0 0.19899020339626003
0.020072342970243223 0.0 0.19899020339626003
0.020072342970243223 0.0 0.19899020339626003
0.020072342970243223 0.0 0.19899020339626003
0.020072342970243223 0.0 0.19899020339626003
0.020072342970243223 0.0 0.19899020339626003
0.020072342970243223 0.0 0.19899020339626003
0.020072342970243223 0.0 0.19899020339626003
0.020072342970243223 0.0 0.19899020339626003
0.020072342970243223 0.0 0.19899020339626003
0.020072342970243223 0.0 0.19899020339626003
0.020072342970243223 0.0 0.19899020339626003
0.020072342970243223 0.0 0.19899020339626003
0.020072342970243223 0.0 0.19899020339626003
0.020072342970243223 0.0 0.19899020339626003
0.020072342970243223 0.0 0.19899020339626003
0.020072342970243223 0.0 0.19899020339626003
0.020072342970243223 0.0 0.19899020339626003
0.020072342970243223 0.0 0.19899020339626003
0.020072342970243223 0.0 0.19899020339626003
0.020072342970243223 0.0 0.19899020339626003
0.020072342970243223 0.0 0.19899020339626003
0.020072342970243223 0.0 0.19899020339626003
0.020072342970243223 0.0 0.19899020339626003
0.020072342970243223 0.0 0.19899020339626003
-0.19626659283523468 0.0 -0.038463288169996834
-0.19626659283523468 0.0 -0.038463288169996834
-0.19626659283523468 0.0 -0.038463288169996834
-0.19626659283523468 0.0 -0.038463288169996834
-0.19626659283523468 0.0 -0.038463288169996834
-0.19626659283523468 0.0 -0.038463288169996834
-0.19626659283523468 0.0 -0.038463288169996834
-0.19626659283523468 0.0 -0.038463288169996834
-0.19626659283523468 0.0 -0.038463288169996834
-0.19626659283523468 0.0 -0.038463288169996834
-0.19626659283523468 0.0 -0.038463288169996834
-0.19626659283523468 0.0 -0.038463288169996834
-0.19626659283523468 0.0 -0.038463288169996834
-0.19626659283523468 0.0 -0.038463288169996834
-0.19626659283523468 0.0 -0.038463288169996834
-0.19626659283523468 0.0 -0.038463288169996834
-0.19626659283523468 0.0 -0.038463288169996834
-0.19626659283523468 0.0 -0.038463288169996834
-0.19626659283523468 0.0 -0.038463288169996834