# vtk DataFile Version 2.0
test
ASCII
DATASET UNSTRUCTURED_GRID
POINTS 6400 float
0.0 0.0 0.0
0.0 1.0 0.0
0.0 2.0 0.0
0.0 3.0 0.0
0.0 4.0 0.0
0.0 5.0 0.0
0.0 6.0 0.0
0.0 7.0 0.0
0.0 8.0 0.0
0.0 9.0 0.0
0.0 10.0 0.0
0.0 11.0 0.0
0.0 12.0 0.0
0.0 13.0 0.0
0.0 14.0 0.0
0.0 15.0 0.0
0.0 16.0 0.0
0.0 17.0 0.0
0.0 18.0 0.0
0.0 19.0 0.0
0.0 20.0 0.0
0.0 21.0 0.0
0.0 22.0 0.0
0.0 23.0 0.0
0.0 24.0 0.0
0.0 25.0 0.0
0.0 26.0 0.0
0.0 27.0 0.0
0.0 28.0 0.0
0.0 29.0 0.0
0.0 30.0 0.0
0.0 31.0 0.0
0.0 32.0 0.0
0.0 33.0 0.0
0.0 34.0 0.0
0.0 35.0 0.0
0.0 36.0 0.0
0.0 37.0 0.0
0.0 38.0 0.0
0.0 39.0 0.0
0.0 40.0 0.0
0.0 41.0 0.0
0.0 42.0 0.0
0.0 43.0 0.0
0.0 44.0 0.0
0.0 45.0 0.0
0.0 46.0 0.0
0.0 47.0 0.0
0.0 48.0 0.0
0.0 49.0 0.0
0.0 50.0 0.0
0.0 51.0 0.0
0.0 52.0 0.0
0.0 53.0 0.0
0.0 54.0 0.0
0.0 55.0 0.0
0.0 56.0 0.0
0.0 57.0 0.0
0.0 58.0 0.0
0.0 59.0 0.0
0.0 60.0 0.0
0.0 61.0 0.0
0.0 62.0 0.0
0.0 63.0 0.0
0.0 64.0 0.0
0.0 65.0 0.0
0.0 66.0 0.0
0.0 67.0 0.0
0.0 68.0 0.0
0.0 69.0 0.0
0.0 70.0 0.0
0.0 71.0 0.0
0.0 72.0 0.0
0.0 73.0 0.0
0.0 74.0 0.0
0.0 75.0 0.0
0.0 76.0 0.0
0.0 77.0 0.0
0.0 78.0 0.0
0.0 79.0 0.0
1.0 0.0 0.0
1.0 1.0 0.0
1.0 2.0 0.0
1.0 3.0 0.0
1.0 4.0 0.0
1.0 5.0 0.0
1.0 6.0 0.0
1.0 7.0 0.0
1.0 8.0 0.0
1.0 9.0 0.0
1.0 10.0 0.0
1.0 11.0 0.0
1.0 12.0 0.0
1.0 13.0 0.0
1.0 14.0 0.0
1.0 15.0 0.0
1.0 16.0 0.0
1.0 17.0 0.0
1.0 18.0 0.0
1.0 19.0 0.0
1.0 20.0 0.0
1.0 21.0 0.0
1.0 22.0 0.0
1.0 23.0 0.0
1.0 24.0 0.0
1.0 25.0 0.0
1.0 26.0 0.0
1.0 27.0 0.0
1.0 28.0 0.0
1.0 29.0 0.0
1.0 30.0 0.0
1.0 31.0 0.0
1.0 32.0 0.0
1.0 33.0 0.0
1.0 34.0 0.0
1.0 35.0 0.0
1.0 36.0 0.0
1.0 37.0 0.0
1.0 38.0 0.0
1.0 39.0 0.0
1.0 40.0 0.0
1.0 41.0 0.0
1.0 42.0 0.0
1.0 43.0 0.0
1.0 44.0 0.0
1.0 45.0 0.0
1.0 46.0 0.0
1.0 47.0 0.0
1.0 48.0 0.0
1.0 49.0 0.0
1.0 50.0 0.0
1.0 51.0 0.0
1.0 52.0 0.0
1.0 53.0 0.0
1.0 54.0 0.0
1.0 55.0 0.0
1.0 56.0 0.0
1.0 57.0 0.0
1.0 58.0 0.0
1.0 59.0 0.0
1.0 60.0 0.0
1.0 61.0 0.0
1.0 62.0 0.0
1.0 63.0 0.0
1.0 64.0 0.0
1.0 65.0 0.0
1.0 66.0 0.0
1.0 67.0 0.0
1.0 68.0 0.0
1.0 69.0 0.0
1.0 70.0 0.0
1.0 71.0 0.0
1.0 72.0 0.0
1.0 73.0 0.0
1.0 74.0 0.0
1.0 75.0 0.0
1.0 76.0 0.0
1.0 77.0 0.0
1.0 78.0 0.0
1.0 79.0 0.0
2.0 0.0 0.0
2.0 1.0 0.0
2.0 2.0 0.0
2.0 3.0 0.0
2.0 4.0 0.0
2.0 5.0 0.0
2.0 6.0 0.0
2.0 7.0 0.0
2.0 8.0 0.0
2.0 9.0 0.0
2.0 10.0 0.0
2.0 11.0 0.0
2.0 12.0 0.0
2.0 13.0 0.0
2.0 14.0 0.0
2.0 15.0 0.0
2.0 16.0 0.0
2.0 17.0 0.0
2.0 18.0 0.0
2.0 19.0 0.0
2.0 20.0 0.0
2.0 21.0 0.0
2.0 22.0 0.0
2.0 23.0 0.0
2.0 24.0 0.0
2.0 25.0 0.0
2.0 26.0 0.0
2.0 27.0 0.0
2.0 28.0 0.0
2.0 29.0 0.0
2.0 30.0 0.0
2.0 31.0 0.0
2.0 32.0 0.0
2.0 33.0 0.0
2.0 34.0 0.0
2.0 35.0 0.0
2.0 36.0 0.0
2.0 37.0 0.0
2.0 38.0 0.0
2.0 39.0 0.0
2.0 40.0 0.0
2.0 41.0 0.0
2.0 42.0 0.0
2.0 43.0 0.0
2.0 44.0 0.0
2.0 45.0 0.0
2.0 46.0 0.0
2.0 47.0 0.0
2.0 48.0 0.0
2.0 49.0 0.0
2.0 50.0 0.0
2.0 51.0 0.0
2.0 52.0 0.0
2.0 53.0 0.0
2.0 54.0 0.0
2.0 55.0 0.0
2.0 56.0 0.0
2.0 57.0 0.0
2.0 58.0 0.0
2.0 59.0 0.0
2.0 60.0 0.0
2.0 61.0 0.0
2.0 62.0 0.0
2.0 63.0 0.0
2.0 64.0 0.0
2.0 65.0 0.0
2.0 66.0 0.0
2.0 67.0 0.0
2.0 68.0 0.0
2.0 69.0 0.0
2.0 70.0 0.0
2.0 71.0 0.0
2.0 72.0 0.0
2.0 73.0 0.0
2.0 74.0 0.0
2.0 75.0 0.0
2.0 76.0 0.0
2.0 77.0 0.0
2.0 78.0 0.0
2.0 79.0 0.0
3.0 0.0 0.0
3.0 1.0 0.0
3.0 2.0 0.0
3.0 3.0 0.0
3.0 4.0 0.0
3.0 5.0 0.0
3.0 6.0 0.0
3.0 7.0 0.0
3.0 8.0 0.0
3.0 9.0 0.0
3.0 10.0 0.0
3.0 11.0 0.0
3.0 12.0 0.0
3.0 13.0 0.0
3.0 14.0 0.0
3.0 15.0 0.0
3.0 16.0 0.0
3.0 17.0 0.0
3.0 18.0 0.0
3.0 19.0 0.0
3.0 20.0 0.0
3.0 21.0 0.0
3.0 22.0 0.0
3.0 23.0 0.0
3.0 24.0 0.0
3.0 25.0 0.0
3.0 26.0 0.0
3.0 27.0 0.0
3.0 28.0 0.0
3.0 29.0 0.0
3.0 30.0 0.0
3.0 31.0 0.0
3.0 32.0 0.0
3.0 33.0 0.0
3.0 34.0 0.0
3.0 35.0 0.0
3.0 36.0 0.0
3.0 37.0 0.0
3.0 38.0 0.0
3.0 39.0 0.0
3.0 40.0 0.0
3.0 41.0 0.0
3.0 42.0 0.0
3.0 43.0 0.0
3.0 44.0 0.0
3.0 45.0 0.0
3.0 46.0 0.0
3.0 47.0 0.0
3.0 48.0 0.0
3.0 49.0 0.0
3.0 50.0 0.0
3.0 51.0 0.0
3.0 52.0 0.0
3.0 53.0 0.0
3.0 54.0 0.0
3.0 55.0 0.0
3.0 56.0 0.0
3.0 57.0 0.0
3.0 58.0 0.0
3.0 59.0 0.0
3.0 60.0 0.0
3.0 61.0 0.0
3.0 62.0 0.0
3.0 63.0 0.0
3.0 64.0 0.0
3.0 65.0 0.0
3.0 66.0 0.0
3.0 67.0 0.0
3.0 68.0 0.0
3.0 69.0 0.0
3.0 70.0 0.0
3.0 71.0 0.0
3.0 72.0 0.0
3.0 73.0 0.0
3.0 74.0 0.0
3.0 75.0 0.0
3.0 76.0 0.0
3.0 77.0 0.0
3.0 78.0 0.0
3.0 79.0 0.0
4.0 0.0 0.0
4.0 1.0 0.0
4.0 2.0 0.0
4.0 3.0 0.0
4.0 4.0 0.0
4.0 5.0 0.0
4.0 6.0 0.0
4.0 7.0 0.0
4.0 8.0 0.0
4.0 9.0 0.0
4.0 10.0 0.0
4.0 11.0 0.0
4.0 12.0 0.0
4.0 13.0 0.0
4.0 14.0 0.0
4.0 15.0 0.0
4.0 16.0 0.0
4.0 17.0 0.0
4.0 18.0 0.0
4.0 19.0 0.0
4.0 20.0 0.0
4.0 21.0 0.0
4.0 22.0 0.0
4.0 23.0 0.0
4.0 24.0 0.0
4.0 25.0 0.0
4.0 26.0 0.0
4.0 27.0 0.0
4.0 28.0 0.0
4.0 29.0 0.0
4.0 30.0 0.0
4.0 31.0 0.0
4.0 32.0 0.0
4.0 33.0 0.0
4.0 34.0 0.0
4.0 35.0 0.0
4.0 36.0 0.0
4.0 37.0 0.0
4.0 38.0 0.0
4.0 39.0 0.0
4.0 40.0 0.0
4.0 41.0 0.0
4.0 42.0 0.0
4.0 43.0 0.0
4.0 44.0 0.0
4.0 45.0 0.0
4.0 46.0 0.0
4.0 47.0 0.0
4.0 48.0 0.0
4.0 49.0 0.0
4.0 50.0 0.0
4.0 51.0 0.0
4.0 52.0 0.0
4.0 53.0 0.0
4.0 54.0 0.0
4.0 55.0 0.0
4.0 56.0 0.0
4.0 57.0 0.0
4.0 58.0 0.0
4.0 59.0 0.0
4.0 60.0 0.0
4.0 61.0 0.0
4.0 62.0 0.0
4.0 63.0 0.0
4.0 64.0 0.0
4.0 65.0 0.0
4.0 66.0 0.0
4.0 67.0 0.0
4.0 68.0 0.0
4.0 69.0 0.0
4.0 70.0 0.0
4.0 71.0 0.0
4.0 72.0 0.0
4.0 73.0 0.0
4.0 74.0 0.0
4.0 75.0 0.0
4.0 76.0 0.0
4.0 77.0 0.0
4.0 78.0 0.0
4.0 79.0 0.0
5.0 0.0 0.0
5.0 1.0 0.0
5.0 2.0 0.0
5.0 3.0 0.0
5.0 4.0 0.0
5.0 5.0 0.0
5.0 6.0 0.0
5.0 7.0 0.0
5.0 8.0 0.0
5.0 9.0 0.0
5.0 10.0 0.0
5.0 11.0 0.0
5.0 12.0 0.0
5.0 13.0 0.0
5.0 14.0 0.0
5.0 15.0 0.0
5.0 16.0 0.0
5.0 17.0 0.0
5.0 18.0 0.0
5.0 19.0 0.0
5.0 20.0 0.0
5.0 21.0 0.0
5.0 22.0 0.0
5.0 23.0 0.0
5.0 24.0 0.0
5.0 25.0 0.0
5.0 26.0 0.0
5.0 27.0 0.0
5.0 28.0 0.0
5.0 29.0 0.0
5.0 30.0 0.0
5.0 31.0 0.0
5.0 32.0 0.0
5.0 33.0 0.0
5.0 34.0 0.0
5.0 35.0 0.0
5.0 36.0 0.0
5.0 37.0 0.0
5.0 38.0 0.0
5.0 39.0 0.0
5.0 40.0 0.0
5.0 41.0 0.0
5.0 42.0 0.0
5.0 43.0 0.0
5.0 44.0 0.0
5.0 45.0 0.0
5.0 46.0 0.0
5.0 47.0 0.0
5.0 48.0 0.0
5.0 49.0 0.0
5.0 50.0 0.0
5.0 51.0 0.0
5.0 52.0 0.0
5.0 53.0 0.0
5.0 54.0 0.0
5.0 55.0 0.0
5.0 56.0 0.0
5.0 57.0 0.0
5.0 58.0 0.0
5.0 59.0 0.0
5.0 60.0 0.0
5.0 61.0 0.0
5.0 62.0 0.0
5.0 63.0 0.0
5.0 64.0 0.0
5.0 65.0 0.0
5.0 66.0 0.0
5.0 67.0 0.0
5.0 68.0 0.0
5.0 69.0 0.0
5.0 70.0 0.0
5.0 71.0 0.0
5.0 72.0 0.0
5.0 73.0 0.0
5.0 74.0 0.0
5.0 75.0 0.0
5.0 76.0 0.0
5.0 77.0 0.0
5.0 78.0 0.0
5.0 79.0 0.0
6.0 0.0 0.0
6.0 1.0 0.0
6.0 2.0 0.0
6.0 3.0 0.0
6.0 4.0 0.0
6.0 5.0 0.0
6.0 6.0 0.0
6.0 7.0 0.0
6.0 8.0 0.0
6.0 9.0 0.0
6.0 10.0 0.0
6.0 11.0 0.0
6.0 12.0 0.0
6.0 13.0 0.0
6.0 14.0 0.0
6.0 15.0 0.0
6.0 16.0 0.0
6.0 17.0 0.0
6.0 18.0 0.0
6.0 19.0 0.0
6.0 20.0 0.0
6.0 21.0 0.0
6.0 22.0 0.0
6.0 23.0 0.0
6.0 24.0 0.0
6.0 25.0 0.0
6.0 26.0 0.0
6.0 27.0 0.0
6.0 28.0 0.0
6.0 29.0 0.0
6.0 30.0 0.0
6.0 31.0 0.0
6.0 32.0 0.0
6.0 33.0 0.0
6.0 34.0 0.0
6.0 35.0 0.0
6.0 36.0 0.0
6.0 37.0 0.0
6.0 38.0 0.0
6.0 39.0 0.0
6.0 40.0 0.0
6.0 41.0 0.0
6.0 42.0 0.0
6.0 43.0 0.0
6.0 44.0 0.0
6.0 45.0 0.0
6.0 46.0 0.0
6.0 47.0 0.0
6.0 48.0 0.0
6.0 49.0 0.0
6.0 50.0 0.0
6.0 51.0 0.0
6.0 52.0 0.0
6.0 53.0 0.0
6.0 54.0 0.0
6.0 55.0 0.0
6.0 56.0 0.0
6.0 57.0 0.0
6.0 58.0 0.0
6.0 59.0 0.0
6.0 60.0 0.0
6.0 61.0 0.0
6.0 62.0 0.0
6.0 63.0 0.0
6.0 64.0 0.0
6.0 65.0 0.0
6.0 66.0 0.0
6.0 67.0 0.0
6.0 68.0 0.0
6.0 69.0 0.0
6.0 70.0 0.0
6.0 71.0 0.0
6.0 72.0 0.0
6.0 73.0 0.0
6.0 74.0 0.0
6.0 75.0 0.0
6.0 76.0 0.0
6.0 77.0 0.0
6.0 78.0 0.0
6.0 79.0 0.0
7.0 0.0 0.0
7.0 1.0 0.0
7.0 2.0 0.0
7.0 3.0 0.0
7.0 4.0 0.0
7.0 5.0 0.0
7.0 6.0 0.0
7.0 7.0 0.0
7.0 8.0 0.0
7.0 9.0 0.0
7.0 10.0 0.0
7.0 11.0 0.0
7.0 12.0 0.0
7.0 13.0 0.0
7.0 14.0 0.0
7.0 15.0 0.0
7.0 16.0 0.0
7.0 17.0 0.0
7.0 18.0 0.0
7.0 19.0 0.0
7.0 20.0 0.0
7.0 21.0 0.0
7.0 22.0 0.0
7.0 23.0 0.0
7.0 24.0 0.0
7.0 25.0 0.0
7.0 26.0 0.0
7.0 27.0 0.0
7.0 28.0 0.0
7.0 29.0 0.0
7.0 30.0 0.0
7.0 31.0 0.0
7.0 32.0 0.0
7.0 33.0 0.0
7.0 34.0 0.0
7.0 35.0 0.0
7.0 36.0 0.0
7.0 37.0 0.0
7.0 38.0 0.0
7.0 39.0 0.0
7.0 40.0 0.0
7.0 41.0 0.0
7.0 42.0 0.0
7.0 43.0 0.0
7.0 44.0 0.0
7.0 45.0 0.0
7.0 46.0 0.0
7.0 47.0 0.0
7.0 48.0 0.0
7.0 49.0 0.0
7.0 50.0 0.0
7.0 51.0 0.0
7.0 52.0 0.0
7.0 53.0 0.0
7.0 54.0 0.0
7.0 55.0 0.0
7.0 56.0 0.0
7.0 57.0 0.0
7.0 58.0 0.0
7.0 59.0 0.0
7.0 60.0 0.0
7.0 61.0 0.0
7.0 62.0 0.0
7.0 63.0 0.0
7.0 64.0 0.0
7.0 65.0 0.0
7.0 66.0 0.0
7.0 67.0 0.0
7.0 68.0 0.0
7.0 69.0 0.0
7.0 70.0 0.0
7.0 71.0 0.0
7.0 72.0 0.0
7.0 73.0 0.0
7.0 74.0 0.0
7.0 75.0 0.0
7.0 76.0 0.0
7.0 77.0 0.0
7.0 78.0 0.0
7.0 79.0 0.0
8.0 0.0 0.0
8.0 1.0 0.0
8.0 2.0 0.0
8.0 3.0 0.0
8.0 4.0 0.0
8.0 5.0 0.0
8.0 6.0 0.0
8.0 7.0 0.0
8.0 8.0 0.0
8.0 9.0 0.0
8.0 10.0 0.0
8.0 11.0 0.0
8.0 12.0 0.0
8.0 13.0 0.0
8.0 14.0 0.0
8.0 15.0 0.0
8.0 16.0 0.0
8.0 17.0 0.0
8.0 18.0 0.0
8.0 19.0 0.0
8.0 20.0 0.0
8.0 21.0 0.0
8.0 22.0 0.0
8.0 23.0 0.0
8.0 24.0 0.0
8.0 25.0 0.0
8.0 26.0 0.0
8.0 27.0 0.0
8.0 28.0 0.0
8.0 29.0 0.0
8.0 30.0 0.0
8.0 31.0 0.0
8.0 32.0 0.0
8.0 33.0 0.0
8.0 34.0 0.0
8.0 35.0 0.0
8.0 36.0 0.0
8.0 37.0 0.0
8.0 38.0 0.0
8.0 39.0 0.0
8.0 40.0 0.0
8.0 41.0 0.0
8.0 42.0 0.0
8.0 43.0 0.0
8.0 44.0 0.0
8.0 45.0 0.0
8.0 46.0 0.0
8.0 47.0 0.0
8.0 48.0 0.0
8.0 49.0 0.0
8.0 50.0 0.0
8.0 51.0 0.0
8.0 52.0 0.0
8.0 53.0 0.0
8.0 54.0 0.0
8.0 55.0 0.0
8.0 56.0 0.0
8.0 57.0 0.0
8.0 58.0 0.0
8.0 59.0 0.0
8.0 60.0 0.0
8.0 61.0 0.0
8.0 62.0 0.0
8.0 63.0 0.0
8.0 64.0 0.0
8.0 65.0 0.0
8.0 66.0 0.0
8.0 67.0 0.0
8.0 68.0 0.0
8.0 69.0 0.0
8.0 70.0 0.0
8.0 71.0 0.0
8.0 72.0 0.0
8.0 73.0 0.0
8.0 74.0 0.0
8.0 75.0 0.0
8.0 76.0 0.0
8.0 77.0 0.0
8.0 78.0 0.0
8.0 79.0 0.0
9.0 0.0 0.0
9.0 1.0 0.0
9.0 2.0 0.0
9.0 3.0 0.0
9.0 4.0 0.0
9.0 5.0 0.0
9.0 6.0 0.0
9.0 7.0 0.0
9.0 8.0 0.0
9.0 9.0 0.0
9.0 10.0 0.0
9.0 11.0 0.0
9.0 12.0 0.0
9.0 13.0 0.0
9.0 14.0 0.0
9.0 15.0 0.0
9.0 16.0 0.0
9.0 17.0 0.0
9.0 18.0 0.0
9.0 19.0 0.0
9.0 20.0 0.0
9.0 21.0 0.0
9.0 22.0 0.0
9.0 23.0 0.0
9.0 24.0 0.0
9.0 25.0 0.0
9.0 26.0 0.0
9.0 27.0 0.0
9.0 28.0 0.0
9.0 29.0 0.0
9.0 30.0 0.0
9.0 31.0 0.0
9.0 32.0 0.0
9.0 33.0 0.0
9.0 34.0 0.0
9.0 35.0 0.0
9.0 36.0 0.0
9.0 37.0 0.0
9.0 38.0 0.0
9.0 39.0 0.0
9.0 40.0 0.0
9.0 41.0 0.0
9.0 42.0 0.0
9.0 43.0 0.0
9.0 44.0 0.0
9.0 45.0 0.0
9.0 46.0 0.0
9.0 47.0 0.0
9.0 48.0 0.0
9.0 49.0 0.0
[...]
POINT_DATA 6400
VECTORS vector float
0.0 0.0 -0.2
0.06280996327940862 2.3327238864909056e-17 -0.18988130111424703
0.12480054506142879 4.5019715945238767e-17 -0.15628443285359642
0.1794318816956328 5.659121769705658e-17 -0.088341382325411
0.19847728173645277 2.863894814228604e-17 0.024632674124194537
0.1414213562373095 -4.710277376051323e-17 0.14142135623730953
0.04933865244771151 -1.3570910237458554e-16 0.19381872297237937
-0.019048232963293638 -2.6799594754391604e-16 0.19909084564835244
-0.05348167687413442 -4.4131426388884237e-16 0.19271665791708478
-0.04942337039871353 -6.692342887810894e-16 0.19379713738451243
-2.0212861992297263e-16 -9.230220894641108e-16 0.2
0.04942337039871327 -7.57809415237411e-16 0.19379713738451243
0.05348167687413431 -5.720740457818338e-16 0.1927166579170848
0.019048232963293575 -4.019939213158748e-16 0.19909084564835247
-0.0493386524477116 -1.9602425898551277e-16 0.19381872297237934
-0.14142135623730967 4.7102773760513307e-17 0.14142135623730936
-0.1984772817364528 3.1502842956514664e-16 0.02463267412419423
-0.17943188169563273 4.414114980370414e-16 -0.08834138232541117
-0.12480054506142868 5.312326481538174e-16 -0.1562844328535965
-0.06280996327940856 5.6762947904612035e-16 -0.18988130111424706
6.943791732745623e-17 6.153480596427406e-16 -0.2
0.06280996327940871 6.026203373434841e-16 -0.189881301114247
0.12480054506142889 5.942602504771518e-16 -0.15628443285359633
0.1794318816956329 5.659121769705658e-16 -0.08834138232541078
0.19847728173645274 3.579868517785751e-16 0.02463267412419486
0.14142135623730936 -4.710277376051316e-17 0.14142135623730964
0.04933865244771137 -4.82521252887414e-16 0.19381872297237943
-0.019048232963293665 -9.975404714134634e-16 0.19909084564835244
-0.05348167687413449 -1.5037374917693873e-15 0.19271665791708478
-0.04942337039871364 -2.0864363120822176e-15 0.19379713738451232
-6.063858597689177e-16 -2.7690662683923324e-15 0.2
0.04942337039871301 -2.3226366492990817e-15 0.1937971373845125
0.053481676874134236 -1.6344972736623853e-15 0.19271665791708484
0.019048232963293544 -1.0570951264232278e-15 0.19909084564835247
-0.049338652447711705 -5.428364094983442e-16 0.19381872297237931
-0.14142135623730992 4.710277376051342e-17 0.14142135623730911
-0.19847728173645285 6.730152813437229e-16 0.02463267412419383
-0.1794318816956326 9.507324573105506e-16 -0.08834138232541147
-0.12480054506142864 1.1344968418200165e-15 -0.15628443285359653
-0.06280996327940852 1.1352589580922407e-15 -0.18988130111424706
1.3887583465491246e-16 1.2306961192854811e-15 -0.2
0.06280996327940877 1.224680040407726e-15 -0.18988130111424698
0.124800545061429 1.1885205009543037e-15 -0.15628443285359625
0.17943188169563296 1.0865513797834863e-15 -0.08834138232541064
0.19847728173645268 6.873347554148639e-16 0.024632674124195092
0.1414213562373092 -4.7102773760513085e-17 0.14142135623730984
0.04933865244771124 -8.896485600111677e-16 0.19381872297237943
-0.01904823296329379 -1.622864349015928e-15 0.19909084564835242
-0.053481676874134645 -2.4027109922836878e-15 0.1927166579170847
-0.049423370398713945 -3.651263546143877e-15 0.19379713738451232
-8.330074156748375e-16 -4.3074364174991834e-15 0.2
0.049423370398712474 -3.611896823274431e-15 0.19379713738451265
0.05348167687413407 -2.5334707741767037e-15 0.1927166579170849
0.019048232963293336 -1.6526416765208192e-15 0.19909084564835247
-0.04933865244771173 -9.952000840802985e-16 0.19381872297237931
-0.14142135623730986 4.7102773760513584e-17 0.1414213562373092
-0.19847728173645285 1.031002133122299e-15 0.02463267412419391
-0.17943188169563237 1.4940081472022917e-15 -0.08834138232541189
-0.12480054506142862 1.629713717217643e-15 -0.15628443285359658
-0.06280996327940858 1.6484582131202398e-15 -0.18988130111424703
2.0831375198236867e-16 1.8460441789282216e-15 -0.2
0.06280996327940906 1.632906720543635e-15 -0.18988130111424684
0.12480054506142911 1.8007886378095515e-15 -0.15628443285359617
0.17943188169563296 1.437416929505235e-15 -0.08834138232541064
0.19847728173645263 1.0596410812645807e-15 0.024632674124195425
0.14142135623730875 -4.710277376051307e-17 0.14142135623731025
0.04933865244771122 -1.2063031322185312e-15 0.19381872297237945
-0.01904823296329361 -2.4715181829049837e-15 0.19909084564835244
-0.05348167687413469 -3.3180294655346135e-15 0.1927166579170847
-0.049423370398713806 -5.206249099488175e-15 0.19379713738451232
-1.5925360234008328e-15 -6.153480596427404e-15 0.2
0.04942337039871225 -5.176724057336114e-15 0.1937971373845127
0.053481676874133945 -3.6285839475305115e-15 0.19271665791708492
0.01904823296329327 -2.3970748641428147e-15 0.1990908456483525
-0.04933865244771202 -1.2515394996767448e-15 0.19381872297237923
-0.14142135623731003 4.7102773760513664e-17 0.14142135623730898
-0.19847728173645288 1.3889889849008764e-15 0.024632674124193607
-0.17943188169563226 2.0486020806334457e-15 -0.08834138232541211
-0.12480054506142851 2.232977910883842e-15 -0.1562844328535966
-0.0628099632794085 2.258854296752027e-15 -0.18988130111424706
-2.7215418445645566e-17 -0.06280015384617342 -0.1898845456505004
0.0626973381850482 -0.06274111387548896 -0.17925567331097955
0.12390695518506878 -0.06181984702542657 -0.14430998915708582
0.17659284164978117 -0.0566392523346849 -0.07487965927421951
0.192532797159128 -0.03806475841384632 0.03849930109726136
0.13002068516249624 0.0 0.1519691463089631
0.032629035120949175 0.04001929657025302 0.19321956932230752
-0.03595692211802109 0.07320163912745752 0.1826160446972063
-0.06531234950948483 0.10571595915557985 0.1567113045742606
-0.05278364615913116 0.13918467896974424 0.13357212223453244
-8.731012515640212e-17 0.15669885853577326 0.1242797961600586
0.05278364615913109 0.1391846789697442 0.1335721222345325
0.06531234950948482 0.10571595915557981 0.15671130457426066
0.03595692211802103 0.0732016391274574 0.18261604469720633
-0.032629035120949335 0.04001929657025286 0.19321956932230755
-0.13002068516249649 -1.1810375168538801e-16 0.15196914630896288
-0.19253279715912808 -0.038064758413846246 0.038499301097260935
-0.17659284164978115 -0.056639252334684614 -0.07487965927421983
-0.12390695518506872 -0.061819847025426145 -0.144309989157086
-0.06269733818504822 -0.06274111387548845 -0.17925567331097972
3.1103335366452034e-17 -0.0628001538461728 -0.18988454565050059
0.06269733818504829 -0.06274111387548836 -0.17925567331097972
0.12390695518506889 -0.06181984702542598 -0.14430998915708598
0.17659284164978137 -0.056639252334684254 -0.07487965927421959
0.19253279715912808 -0.03806475841384575 0.03849930109726152
0.13002068516249635 1.6871964526483941e-16 0.15196914630896302
0.03262903512094933 0.040019296570252855 0.19321956932230755
-0.03595692211802078 0.0732016391274569 0.1826160446972066
-0.06531234950948463 0.10571595915557881 0.1567113045742614
-0.05278364615913133 0.1391846789697432 0.13357212223453346
-4.0744725072987777e-16 0.15669885853577212 0.12427979616006009
0.052783646159130726 0.13918467896974335 0.13357212223453355
0.06531234950948449 0.10571595915557884 0.1567113045742614
0.03595692211802072 0.07320163912745675 0.18261604469720671
-0.032629035120949744 0.040019296570252355 0.19321956932230755
-0.13002068516249707 -5.06158935794521e-16 0.1519691463089624
-0.19253279715912827 -0.0380647584138461 0.03849930109726028
-0.17659284164978098 -0.05663925233468431 -0.07487965927422044
-0.12390695518506863 -0.0618198470254256 -0.14430998915708632
-0.06269733818504818 -0.0627411138754878 -0.17925567331098
1.4385292606984054e-16 -0.06280015384617219 -0.18988454565050075
0.06269733818504834 -0.06274111387548763 -0.17925567331098
0.12390695518506907 -0.06181984702542529 -0.14430998915708607
0.17659284164978148 -0.05663925233468356 -0.07487965927421976
0.1925327971591282 -0.03806475841384517 0.038499301097261525
0.1300206851624964 3.711832195826455e-16 0.15196914630896294
0.032629035120949584 0.040019296570252556 0.19321956932230755
-0.03595692211802046 0.07320163912745618 0.18261604469720694
-0.06531234950948461 0.1057159591555781 0.15671130457426188
-0.0527836461591315 0.1391846789697421 0.13357212223453452
-5.723663760253055e-16 0.15669885853577128 0.12427979616006113
0.0527836461591302 0.13918467896974282 0.1335721222345343
0.06531234950948422 0.10571595915557837 0.15671130457426186
0.035956922118020304 0.07320163912745617 0.18261604469720702
-0.032629035120950035 0.040019296570252 0.1932195693223076
-0.13002068516249699 -5.905187584269421e-16 0.15196914630896247
-0.19253279715912833 -0.038064758413845816 0.03849930109726019
-0.1765928416497809 -0.0566392523346838 -0.07487965927422097
-0.1239069551850687 -0.061819847025425215 -0.14430998915708645
-0.06269733818504829 -0.06274111387548756 -0.17925567331098002
1.4385292606984044e-16 -0.06280015384617169 -0.18988454565050095
0.06269733818504866 -0.06274111387548742 -0.17925567331097994
0.12390695518506911 -0.06181984702542476 -0.14430998915708626
0.17659284164978153 -0.05663925233468318 -0.07487965927421997
0.1925327971591283 -0.03806475841384478 0.0384993010972614
0.1300206851624962 5.567748293739676e-16 0.15196914630896313
0.032629035120949904 0.04001929657025228 0.19321956932230758
-0.03595692211801995 0.07320163912745545 0.18261604469720735
-0.06531234950948446 0.10571595915557748 0.15671130457426236
-0.052783646159131184 0.13918467896974146 0.13357212223453538
-1.1641350020853693e-15 0.1566988585357706 0.124279796160062
0.05278364615913006 0.13918467896974204 0.13357212223453516
0.06531234950948402 0.10571595915557766 0.1567113045742624
0.03595692211801994 0.07320163912745548 0.18261604469720735
-0.03262903512095046 0.04001929657025151 0.19321956932230763
-0.1300206851624974 -7.929823327447513e-16 0.15196914630896216
-0.1925327971591285 -0.038064758413845635 0.03849930109725964
-0.17659284164978084 -0.05663925233468339 -0.07487965927422144
-0.12390695518506861 -0.061819847025424646 -0.14430998915708673
-0.0626973381850482 -0.06274111387548696 -0.17925567331098025
-5.4069083311382744e-17 -0.12453703284817969 -0.15649449654659242
0.062210707555327587 -0.12415458530822401 -0.14392868655139057
0.11997959351446999 -0.12169351309332327 -0.10390180946984376
0.16362524450087787 -0.11124732745754831 -0.029168673188559088
0.1649680650403211 -0.07600496841340693 0.0837184704430833
0.08418111185325612 1.10779708889723e-16 0.18142089297307953
-0.02435503409226962 0.07882926068677328 0.1821888579851719
-0.08408421684052383 0.13172696591459684 0.12481126122770497
-0.09154680873527844 0.16752449870387864 0.05962150739792237
-0.058199611515592733 0.19110191471844093 0.00963656631689028
2.1684184879953872e-17 0.19978027214767305 -0.009372452219227233
0.058199611515592775 0.1911019147184409 0.00963656631689027
0.09154680873527851 0.16752449870387856 0.059621507397922435
0.08408421684052389 0.1317269659145967 0.12481126122770513
0.024355034092269467 0.07882926068677298 0.18218885798517204
-0.0841811118532565 -3.021264787901538e-16 0.18142089297307937
-0.16496806504032127 -0.07600496841340701 0.08371847044308284
-0.1636252445008779 -0.11124732745754813 -0.029168673188559507
-0.11997959351447003 -0.12169351309332291 -0.10390180946984413
-0.062210707555327684 -0.12415458530822354 -0.14392868655139096
-4.0551812483536985e-17 -0.12453703284817913 -0.15649449654659287
0.06221070755532764 -0.12415458530822346 -0.14392868655139102
0.11997959351447013 -0.12169351309332269 -0.10390180946984427
0.16362524450087818 -0.11124732745754765 -0.029168673188559605
0.16496806504032158 -0.07600496841340626 0.08371847044308295
0.0841811118532567 5.035441313169214e-16 0.18142089297307928
-0.024355034092268874 0.07882926068677323 0.18218885798517204
-0.0840842168405232 0.13172696591459648 0.12481126122770579
-0.09154680873527818 0.16752449870387837 0.05962150739792348
-0.05819961151559275 0.19110191471844085 0.009636566316891403
-1.3733317090637493e-16 0.19978027214767308 -0.009372452219226024
0.058199611515592636 0.1911019147184409 0.009636566316891379
0.09154680873527829 0.1675244987038784 0.05962150739792336
0.08408421684052347 0.13172696591459632 0.1248112612277058
0.02435503409226891 0.0788292606867725 0.1821888579851723
-0.0841811118532572 -8.459541406124306e-16 0.18142089297307906
-0.16496806504032158 -0.07600496841340722 0.08371847044308206
-0.16362524450087793 -0.11124732745754794 -0.029168673188560215
-0.11997959351447006 -0.1216935130933224 -0.10390180946984467
-0.06221070755532766 -0.12415458530822301 -0.14392868655139135
-2.703454165569127e-17 -0.1245370328481785 -0.1564944965465933
0.06221070755532766 -0.12415458530822283 -0.14392868655139154
0.11997959351447025 -0.12169351309332205 -0.10390180946984484
0.1636252445008785 -0.11124732745754709 -0.029168673188560146
0.16496806504032205 -0.07600496841340569 0.08371847044308253
0.08418111185325736 8.157414927334105e-16 0.18142089297307898
-0.024355034092268017 0.07882926068677315 0.18218885798517215
-0.08408421684052254 0.13172696591459626 0.12481126122770647
-0.09154680873527797 0.1675244987038782 0.05962150739792437
-0.05819961151559277 0.19110191471844076 0.009636566316892853
-2.3852603367949396e-16 0.19978027214767316 -0.00937245221922501
0.058199611515592165 0.191101914718441 0.009636566316891797
0.09154680873527818 0.16752449870387826 0.05962150739792396
0.08408421684052264 0.13172696591459582 0.1248112612277069
0.024355034092268198 0.07882926068677197 0.18218885798517265
-0.08418111185325752 -1.7724753422355734e-15 0.18142089297307892
-0.16496806504032216 -0.07600496841340672 0.08371847044308134
-0.16362524450087804 -0.11124732745754735 -0.02916867318856153
-0.11997959351446996 -0.12169351309332209 -0.10390180946984517
-0.062210707555327774 -0.12415458530822271 -0.14392868655139165
-4.505756942615201e-18 -0.12453703284817774 -0.15649449654659395
0.06221070755532798 -0.12415458530822224 -0.1439286865513919
0.11997959351447054 -0.12169351309332131 -0.10390180946984535
0.16362524450087895 -0.11124732745754627 -0.029168673188560736
0.16496806504032274 -0.07600496841340489 0.0837184704430819
0.0841811118532576 1.7321918117301983e-15 0.18142089297307884
-0.02435503409226728 0.07882926068677323 0.18218885798517223
-0.08408421684052136 0.1317269659145955 0.12481126122770803
-0.09154680873527765 0.16752449870387784 0.05962150739792589
-0.05819961151559258 0.1911019147184408 0.009636566316893773
-6.143852382653651e-16 0.1997802721476732 -0.009372452219223809
0.05819961151559205 0.19110191471844098 0.00963656631689354
0.09154680873527776 0.16752449870387787 0.05962150739792552
0.08408421684052238 0.1317269659145953 0.12481126122770758
0.024355034092267653 0.0788292606867711 0.1821888579851731
-0.08418111185325838 -1.7019791638511997e-15 0.1814208929730785
-0.16496806504032235 -0.07600496841340726 0.08371847044308052
-0.1636252445008779 -0.11124732745754745 -0.02916867318856218
-0.1199795935144701 -0.12169351309332133 -0.1039018094698459
-0.06221070755532783 -0.1241545853082219 -0.1439286865513923
-8.591213800045782e-17 -0.1783686569937679 -0.0904689018516285
0.060755499876511666 -0.17563150439095399 -0.07390767145652416
0.10863337517097837 -0.1660743648258916 -0.024861519395204215
0.12776577757592536 -0.1440559509998198 0.05407207284686505
0.0934435587974942 -0.09432674820024667 0.14956859928884303
-0.012293531243035475 2.1331380783512203e-16 0.1996218151645168
-0.11348580058328742 0.09379682519295858 0.13536295154026412
-0.13845484464047403 0.14056614273785914 0.03273248403928452
-0.11218522667505067 0.15892769793056494 -0.04643771900469071
-0.06122564237348647 0.1658892764470805 -0.09344607362440671
6.462349146789339e-17 0.16771211920187196 -0.10896166790581488
0.06122564237348663 0.16588927644708049 -0.09344607362440666
0.11218522667505082 0.15892769793056485 -0.04643771900469059
0.1384548446404742 0.14056614273785892 0.03273248403928473
0.11348580058328733 0.0937968251929582 0.13536295154026448
0.012293531243035043 -4.764931811381947e-16 0.19962181516451682
-0.09344355879749457 -0.09432674820024706 0.14956859928884259
-0.12776577757592553 -0.14405595099981988 0.05407207284686447
-0.10863337517097854 -0.16607436482589144 -0.024861519395204774
-0.06075549987651185 -0.1756315043909536 -0.07390767145652481
-1.4318689666742926e-16 -0.17836865699376742 -0.09046890185162937
0.06075549987651169 -0.17563150439095357 -0.07390767145652505
0.1086333751709786 -0.16607436482589133 -0.024861519395205305
0.12776577757592597 -0.14405595099981958 0.05407207284686427
0.09344355879749519 -0.09432674820024645 0.14956859928884259
-0.012293531243034455 5.125072006428259e-16 0.19962181516451685
-0.11348580058328638 0.09379682519295905 0.1353629515402647
-0.13845484464047347 0.14056614273785947 0.032732484039285546
-0.11218522667505047 0.15892769793056533 -0.04643771900468977
-0.06122564237348649 0.165889276447081 -0.09344607362440581
2.692645477828898e-17 0.16771211920187246 -0.10896166790581417
0.0612256423734866 0.16588927644708099 -0.09344607362440582
0.11218522667505078 0.1589276979305651 -0.04643771900468982
0.13845484464047386 0.14056614273785903 0.03273248403928565
0.1134858005832869 0.09379682519295773 0.13536295154026515
0.012293531243034032 -1.0818057397352615e-15 0.19962181516451688
-0.0934435587974951 -0.09432674820024765 0.1495685992888419
-0.12776577757592586 -0.14405595099981994 0.054072072846863495
-0.10863337517097871 -0.16607436482589114 -0.02486151939520586
-0.06075549987651191 -0.1756315043909533 -0.07390767145652556
-2.0618913120109751e-16 -0.17836865699376694 -0.09046890185163028
0.06075549987651163 -0.17563150439095318 -0.07390767145652599
0.10863337517097882 -0.16607436482589102 -0.024861519395206356
0.12776577757592664 -0.14405595099981935 0.05407207284686327
0.09344355879749627 -0.09432674820024617 0.14956859928884209
-0.012293531243033477 1.3463702676346678e-15 0.19962181516451694
-0.11348580058328539 0.09379682519295948 0.1353629515402652
-0.13845484464047284 0.14056614273785997 0.0327324840392861
-0.11218522667505025 0.1589276979305658 -0.04643771900468882
-0.0612256423734865 0.16588927644708149 -0.09344607362440498
-2.1541163822631232e-17 0.16771211920187284 -0.10896166790581355
0.06122564237348626 0.16588927644708132 -0.09344607362440538
0.11218522667505071 0.15892769793056538 -0.046437719004689015
0.13845484464047342 0.1405661427378592 0.032732484039286795
0.11348580058328583 0.09379682519295791 0.13536295154026598
0.012293531243033779 -1.6109347955340711e-15 0.19962181516451694
-0.09344355879749615 -0.09432674820024745 0.14956859928884134
-0.12776577757592641 -0.14405595099982002 0.054072072846862135
-0.10863337517097882 -0.166074364825891 -0.024861519395206592
-0.060755499876512256 -0.17563150439095288 -0.07390767145652616
-2.577364140013712e-16 -0.1783686569937665 -0.09046890185163114
0.060755499876511944 -0.17563150439095285 -0.07390767145652656
0.10863337517097907 -0.16607436482589072 -0.02486151939520742
0.12776577757592728 -0.14405595099981924 0.05407207284686201
0.09344355879749733 -0.09432674820024585 0.14956859928884164
-0.0122935312430325 1.5679950030477824e-15 0.199621815164517
-0.11348580058328456 0.09379682519295968 0.13536295154026576
-0.13845484464047214 0.14056614273786025 0.032732484039287864
-0.11218522667505011 0.15892769793056608 -0.046437719004688016
-0.06122564237348619 0.16588927644708198 -0.09344607362440432
-5.3852909556578237e-17 0.1677121192018734 -0.10896166790581269
0.061225642373486225 0.16588927644708176 -0.09344607362440464
0.11218522667505063 0.1589276979305657 -0.04643771900468821
0.13845484464047317 0.14056614273785922 0.0327324840392877
0.11348580058328557 0.09379682519295718 0.13536295154026665
0.012293531243032813 -2.138678696736548e-15 0.19962181516451696
-0.09344355879749686 -0.09432674820024779 0.14956859928884067
-0.12776577757592672 -0.14405595099982008 0.0540720728468612
-0.10863337517097893 -0.16607436482589075 -0.024861519395207473
-0.06075549987651231 -0.17563150439095254 -0.07390767145652698
-1.0088628855787941e-16 -0.1990567457037469 0.019401339897899706
0.057131923324785644 -0.1878585863618777 0.03801440341933264
0.08544041949084677 -0.1596769962798386 0.08487161820229738