# vtk DataFile Version 2.0
test
ASCII
DATASET UNSTRUCTURED_GRID
POINTS 6400 float
0.0 0.0 0.0
-2.037499999999999 3.5290535204215883 0.0
-4.074999999999998 7.0581070408431765 0.0
-6.112499999999997 10.587160561264765 0.0
-8.149999999999997 14.116214081686353 0.0
-10.187499999999996 17.645267602107943 0.0
-12.224999999999994 21.17432112252953 0.0
-14.262499999999994 24.70337464295112 0.0
-16.299999999999994 28.232428163372706 0.0
-18.33749999999999 31.761481683794294 0.0
-20.374999999999993 35.290535204215885 0.0
-22.41249999999999 38.81958872463747 0.0
-24.44999999999999 42.34864224505906 0.0
-26.48749999999999 45.877695765480645 0.0
-28.524999999999988 49.40674928590224 0.0
-30.56249999999999 52.93580280632382 0.0
-32.59999999999999 56.46485632674541 0.0
-34.63749999999999 59.993909847167004 0.0
-36.67499999999998 63.52296336758859 0.0
-38.712499999999984 67.05201688801017 0.0
-40.749999999999986 70.58107040843177 0.0
-42.78749999999998 74.11012392885335 0.0
-44.82499999999998 77.63917744927494 0.0
-46.86249999999998 81.16823096969652 0.0
-48.89999999999998 84.69728449011812 0.0
-50.93749999999998 88.2263380105397 0.0
-52.97499999999998 91.75539153096129 0.0
-55.01249999999998 95.28444505138289 0.0
-57.049999999999976 98.81349857180447 0.0
-59.08749999999998 102.34255209222606 0.0
-61.12499999999998 105.87160561264764 0.0
-63.16249999999997 109.40065913306924 0.0
-65.19999999999997 112.92971265349082 0.0
-67.23749999999997 116.45876617391241 0.0
-69.27499999999998 119.98781969433401 0.0
-71.31249999999997 123.51687321475559 0.0
-73.34999999999997 127.04592673517718 0.0
-75.38749999999997 130.57498025559877 0.0
-77.42499999999997 134.10403377602034 0.0
-79.46249999999996 137.63308729644194 0.0
-81.49999999999997 141.16214081686354 0.0
-83.53749999999997 144.6911943372851 0.0
-85.57499999999996 148.2202478577067 0.0
-87.61249999999997 151.7493013781283 0.0
-89.64999999999996 155.27835489854988 0.0
-91.68749999999996 158.80740841897148 0.0
-93.72499999999997 162.33646193939305 0.0
-95.76249999999996 165.86551545981465 0.0
-97.79999999999995 169.39456898023624 0.0
-99.83749999999996 172.9236225006578 0.0
-101.87499999999996 176.4526760210794 0.0
-103.91249999999997 179.981729541501 0.0
-105.94999999999996 183.51078306192258 0.0
-107.98749999999995 187.03983658234418 0.0
-110.02499999999996 190.56889010276578 0.0
-112.06249999999996 194.09794362318735 0.0
-114.09999999999995 197.62699714360895 0.0
-116.13749999999996 201.15605066403054 0.0
-118.17499999999995 204.68510418445211 0.0
-120.21249999999995 208.2141577048737 0.0
-122.24999999999996 211.74321122529528 0.0
-124.28749999999995 215.27226474571688 0.0
-126.32499999999995 218.80131826613848 0.0
-128.36249999999995 222.33037178656005 0.0
-130.39999999999995 225.85942530698165 0.0
-132.43749999999994 229.38847882740325 0.0
-134.47499999999994 232.91753234782482 0.0
-136.51249999999996 236.44658586824642 0.0
-138.54999999999995 239.97563938866801 0.0
-140.58749999999995 243.50469290908958 0.0
-142.62499999999994 247.03374642951118 0.0
-144.66249999999994 250.56279994993275 0.0
-146.69999999999993 254.09185347035435 0.0
-148.73749999999995 257.62090699077595 0.0
-150.77499999999995 261.14996051119755 0.0
-152.81249999999994 264.67901403161915 0.0
-154.84999999999994 268.2080675520407 0.0
-156.88749999999993 271.7371210724623 0.0
-158.92499999999993 275.2661745928839 0.0
-160.96249999999995 278.7952281133055 0.0
4.075 0.0 0.0
2.037500000000001 3.5290535204215883 0.0
1.7763568394002505e-15 7.0581070408431765 0.0
-2.037499999999997 10.587160561264765 0.0
-4.074999999999997 14.116214081686353 0.0
-6.112499999999996 17.645267602107943 0.0
-8.149999999999995 21.17432112252953 0.0
-10.187499999999993 24.70337464295112 0.0
-12.224999999999994 28.232428163372706 0.0
-14.262499999999992 31.761481683794294 0.0
-16.299999999999994 35.290535204215885 0.0
-18.33749999999999 38.81958872463747 0.0
-20.37499999999999 42.34864224505906 0.0
-22.41249999999999 45.877695765480645 0.0
-24.44999999999999 49.40674928590224 0.0
-26.48749999999999 52.93580280632382 0.0
-28.524999999999988 56.46485632674541 0.0
-30.56249999999999 59.993909847167004 0.0
-32.59999999999998 63.52296336758859 0.0
-34.63749999999998 67.05201688801017 0.0
-36.67499999999998 70.58107040843177 0.0
-38.71249999999998 74.11012392885335 0.0
-40.74999999999998 77.63917744927494 0.0
-42.78749999999998 81.16823096969652 0.0
-44.824999999999974 84.69728449011812 0.0
-46.862499999999976 88.2263380105397 0.0
-48.89999999999998 91.75539153096129 0.0
-50.93749999999998 95.28444505138289 0.0
-52.97499999999997 98.81349857180447 0.0
-55.012499999999974 102.34255209222606 0.0
-57.049999999999976 105.87160561264764 0.0
-59.08749999999997 109.40065913306924 0.0
-61.12499999999997 112.92971265349082 0.0
-63.162499999999966 116.45876617391241 0.0
-65.19999999999997 119.98781969433401 0.0
-67.23749999999997 123.51687321475559 0.0
-69.27499999999996 127.04592673517718 0.0
-71.31249999999997 130.57498025559877 0.0
-73.34999999999997 134.10403377602034 0.0
-75.38749999999996 137.63308729644194 0.0
-77.42499999999997 141.16214081686354 0.0
-79.46249999999996 144.6911943372851 0.0
-81.49999999999996 148.2202478577067 0.0
-83.53749999999997 151.7493013781283 0.0
-85.57499999999996 155.27835489854988 0.0
-87.61249999999995 158.80740841897148 0.0
-89.64999999999996 162.33646193939305 0.0
-91.68749999999996 165.86551545981465 0.0
-93.72499999999995 169.39456898023624 0.0
-95.76249999999996 172.9236225006578 0.0
-97.79999999999995 176.4526760210794 0.0
-99.83749999999996 179.981729541501 0.0
-101.87499999999996 183.51078306192258 0.0
-103.91249999999995 187.03983658234418 0.0
-105.94999999999996 190.56889010276578 0.0
-107.98749999999995 194.09794362318735 0.0
-110.02499999999995 197.62699714360895 0.0
-112.06249999999996 201.15605066403054 0.0
-114.09999999999995 204.68510418445211 0.0
-116.13749999999995 208.2141577048737 0.0
-118.17499999999995 211.74321122529528 0.0
-120.21249999999995 215.27226474571688 0.0
-122.24999999999994 218.80131826613848 0.0
-124.28749999999995 222.33037178656005 0.0
-126.32499999999995 225.85942530698165 0.0
-128.36249999999995 229.38847882740325 0.0
-130.39999999999995 232.91753234782482 0.0
-132.43749999999997 236.44658586824642 0.0
-134.47499999999997 239.97563938866801 0.0
-136.51249999999996 243.50469290908958 0.0
-138.54999999999995 247.03374642951118 0.0
-140.58749999999995 250.56279994993275 0.0
-142.62499999999994 254.09185347035435 0.0
-144.66249999999997 257.62090699077595 0.0
-146.69999999999996 261.14996051119755 0.0
-148.73749999999995 264.67901403161915 0.0
-150.77499999999995 268.2080675520407 0.0
-152.81249999999994 271.7371210724623 0.0
-154.84999999999994 275.2661745928839 0.0
-156.88749999999996 278.7952281133055 0.0
8.15 0.0 0.0
6.112500000000001 3.5290535204215883 0.0
4.075000000000002 7.0581070408431765 0.0
2.037500000000003 10.587160561264765 0.0
3.552713678800501e-15 14.116214081686353 0.0
-2.037499999999996 17.645267602107943 0.0
-4.074999999999994 21.17432112252953 0.0
-6.112499999999994 24.70337464295112 0.0
-8.149999999999993 28.232428163372706 0.0
-10.187499999999991 31.761481683794294 0.0
-12.224999999999993 35.290535204215885 0.0
-14.26249999999999 38.81958872463747 0.0
-16.29999999999999 42.34864224505906 0.0
-18.33749999999999 45.877695765480645 0.0
-20.374999999999986 49.40674928590224 0.0
-22.412499999999987 52.93580280632382 0.0
-24.44999999999999 56.46485632674541 0.0
-26.48749999999999 59.993909847167004 0.0
-28.524999999999984 63.52296336758859 0.0
-30.562499999999986 67.05201688801017 0.0
-32.59999999999999 70.58107040843177 0.0
-34.63749999999998 74.11012392885335 0.0
-36.67499999999998 77.63917744927494 0.0
-38.712499999999984 81.16823096969652 0.0
-40.74999999999998 84.69728449011812 0.0
-42.78749999999998 88.2263380105397 0.0
-44.82499999999998 91.75539153096129 0.0
-46.86249999999998 95.28444505138289 0.0
-48.89999999999998 98.81349857180447 0.0
-50.93749999999998 102.34255209222606 0.0
-52.97499999999998 105.87160561264764 0.0
-55.012499999999974 109.40065913306924 0.0
-57.049999999999976 112.92971265349082 0.0
-59.08749999999997 116.45876617391241 0.0
-61.12499999999998 119.98781969433401 0.0
-63.16249999999997 123.51687321475559 0.0
-65.19999999999996 127.04592673517718 0.0
-67.23749999999997 130.57498025559877 0.0
-69.27499999999996 134.10403377602034 0.0
-71.31249999999996 137.63308729644194 0.0
-73.34999999999997 141.16214081686354 0.0
-75.38749999999996 144.6911943372851 0.0
-77.42499999999995 148.2202478577067 0.0
-79.46249999999996 151.7493013781283 0.0
-81.49999999999996 155.27835489854988 0.0
-83.53749999999995 158.80740841897148 0.0
-85.57499999999996 162.33646193939305 0.0
-87.61249999999995 165.86551545981465 0.0
-89.64999999999995 169.39456898023624 0.0
-91.68749999999996 172.9236225006578 0.0
-93.72499999999995 176.4526760210794 0.0
-95.76249999999996 179.981729541501 0.0
-97.79999999999995 183.51078306192258 0.0
-99.83749999999995 187.03983658234418 0.0
-101.87499999999996 190.56889010276578 0.0
-103.91249999999995 194.09794362318735 0.0
-105.94999999999995 197.62699714360895 0.0
-107.98749999999995 201.15605066403054 0.0
-110.02499999999995 204.68510418445211 0.0
-112.06249999999994 208.2141577048737 0.0
-114.09999999999995 211.74321122529528 0.0
-116.13749999999995 215.27226474571688 0.0
-118.17499999999994 218.80131826613848 0.0
-120.21249999999995 222.33037178656005 0.0
-122.24999999999994 225.85942530698165 0.0
-124.28749999999994 229.38847882740325 0.0
-126.32499999999993 232.91753234782482 0.0
-128.36249999999995 236.44658586824642 0.0
-130.39999999999995 239.97563938866801 0.0
-132.43749999999994 243.50469290908958 0.0
-134.47499999999994 247.03374642951118 0.0
-136.51249999999993 250.56279994993275 0.0
-138.54999999999993 254.09185347035435 0.0
-140.58749999999995 257.62090699077595 0.0
-142.62499999999994 261.14996051119755 0.0
-144.66249999999994 264.67901403161915 0.0
-146.69999999999993 268.2080675520407 0.0
[...]
POINT_DATA 6400
VECTORS vector float
0.0 0.0 -0.2
0.15410264855515787 0.0 -0.12748479794973797
0.19645745014573776 0.0 0.037476262917144974
0.09635073482034305 0.0 0.17526133600877275
-0.07362491053693568 -0.0 0.18595529717765025
-0.1902113032590307 -0.0 0.061803398874989514
-0.16886558510040303 0.0 -0.10716535899579933
-0.025066646712860758 0.0 -0.1984229402628956
0.13690942118573787 0.0 -0.1457937254842822
0.19960534568565433 0.0 0.0125581039058629
0.11755705045849468 0.0 0.16180339887498946
-0.04973797743297095 -0.0 0.19371663222572624
-0.18096541049320394 -0.0 0.08515585831301448
-0.18096541049320386 0.0 -0.08515585831301464
-0.04973797743297079 0.0 -0.1937166322257263
0.11755705045849457 0.0 -0.16180339887498954
0.19960534568565436 0.0 -0.012558103905862362
0.13690942118573746 0.0 0.14579372548428257
-0.025066646712861292 -0.0 0.19842294026289553
-0.16886558510040311 -0.0 0.10716535899579921
-0.19021130325903077 0.0 -0.06180339887498936
-0.07362491053693533 0.0 -0.18595529717765039
0.09635073482034305 0.0 -0.17526133600877275
0.19645745014573782 0.0 -0.03747626291714453
0.15410264855515776 0.0 0.12748479794973805
-5.390921838794708e-16 -0.0 0.2
-0.154102648555158 -0.0 0.12748479794973774
-0.19645745014573776 0.0 -0.03747626291714489
-0.09635073482034273 0.0 -0.17526133600877292
0.07362491053693568 0.0 -0.18595529717765025
0.19021130325903068 0.0 -0.061803398874989694
0.16886558510040253 0.0 0.10716535899580011
0.025066646712860227 0.0 0.19842294026289564
-0.13690942118573746 -0.0 0.14579372548428257
-0.19960534568565427 0.0 -0.012558103905863436
-0.11755705045849425 0.0 -0.16180339887498976
0.04973797743297183 0.0 -0.19371663222572602
0.1809654104932039 0.0 -0.08515585831301464
0.1809654104932038 0.0 0.08515585831301481
0.04973797743297025 0.0 0.19371663222572644
-0.1175570504584944 -0.0 0.16180339887498965
-0.19960534568565436 -0.0 0.012558103905862532
-0.13690942118573732 0.0 -0.1457937254842827
0.025066646712861823 0.0 -0.19842294026289545
0.16886558510040303 0.0 -0.10716535899579933
0.1902113032590306 0.0 0.06180339887498987
0.07362491053693483 0.0 0.18595529717765058
-0.09635073482034416 -0.0 0.17526133600877214
-0.1964574501457378 -0.0 0.0374762629171447
-0.15410264855515743 0.0 -0.12748479794973844
1.0781843677589415e-15 0.0 -0.2
0.1541026485551579 0.0 -0.12748479794973788
0.19645745014573768 0.0 0.03747626291714542
0.09635073482034227 0.0 0.17526133600877317
-0.07362491053693553 -0.0 0.18595529717765033
-0.19021130325903082 -0.0 0.061803398874989174
-0.16886558510040262 0.0 -0.10716535899579996
-0.025066646712861098 0.0 -0.19842294026289553
0.13690942118573787 0.0 -0.1457937254842822
0.19960534568565422 0.0 0.012558103905864685
0.11755705045849496 0.0 0.16180339887498926
-0.04973797743297234 -0.0 0.19371663222572588
-0.1809654104932047 -0.0 0.08515585831301287
-0.18096541049320417 0.0 -0.08515585831301402
-0.04973797743296973 0.0 -0.19371663222572655
0.11755705045849599 0.0 -0.1618033988749885
0.19960534568565427 0.0 -0.012558103905863411
0.13690942118573693 0.0 0.14579372548428307
-0.025066646712862364 -0.0 0.1984229402628954
-0.16886558510040253 -0.0 0.1071653589958001
-0.19021130325903046 0.0 -0.061803398874990395
-0.07362491053693433 0.0 -0.1859552971776508
0.09635073482034462 0.0 -0.17526133600877186
0.19645745014573765 0.0 -0.03747626291714556
0.15410264855515798 0.0 0.12748479794973777
-3.038362023158613e-15 -0.0 0.2
-0.15410264855515823 -0.0 0.1274847979497375
-0.19645745014573757 0.0 -0.037476262917145946
-0.09635073482034179 0.0 -0.17526133600877344
0.07362491053693469 0.0 -0.18595529717765066
0.0 0.0 -0.2
0.15410264855515787 0.0 -0.12748479794973797
0.19645745014573776 0.0 0.037476262917144974
0.09635073482034305 0.0 0.17526133600877275
-0.07362491053693568 -0.0 0.18595529717765025
-0.1902113032590307 -0.0 0.061803398874989514
-0.16886558510040303 0.0 -0.10716535899579933
-0.025066646712860758 0.0 -0.1984229402628956
0.13690942118573787 0.0 -0.1457937254842822
0.19960534568565433 0.0 0.0125581039058629
0.11755705045849468 0.0 0.16180339887498946
-0.04973797743297095 -0.0 0.19371663222572624
-0.18096541049320394 -0.0 0.08515585831301448
-0.18096541049320386 0.0 -0.08515585831301464
-0.04973797743297079 0.0 -0.1937166322257263
0.11755705045849457 0.0 -0.16180339887498954
0.19960534568565436 0.0 -0.012558103905862362
0.13690942118573746 0.0 0.14579372548428257
-0.025066646712861292 -0.0 0.19842294026289553
-0.16886558510040311 -0.0 0.10716535899579921
-0.19021130325903077 0.0 -0.06180339887498936
-0.07362491053693533 0.0 -0.18595529717765039
0.09635073482034305 0.0 -0.17526133600877275
0.19645745014573782 0.0 -0.03747626291714453
0.15410264855515776 0.0 0.12748479794973805
-5.390921838794708e-16 -0.0 0.2
-0.154102648555158 -0.0 0.12748479794973774
-0.19645745014573776 0.0 -0.03747626291714489
-0.09635073482034273 0.0 -0.17526133600877292
0.07362491053693568 0.0 -0.18595529717765025
0.19021130325903068 0.0 -0.061803398874989694
0.16886558510040253 0.0 0.10716535899580011
0.025066646712860227 0.0 0.19842294026289564
-0.13690942118573746 -0.0 0.14579372548428257
-0.19960534568565427 0.0 -0.012558103905863436
-0.11755705045849425 0.0 -0.16180339887498976
0.04973797743297183 0.0 -0.19371663222572602
0.1809654104932039 0.0 -0.08515585831301464
0.1809654104932038 0.0 0.08515585831301481
0.04973797743297025 0.0 0.19371663222572644
-0.1175570504584944 -0.0 0.16180339887498965
-0.19960534568565436 -0.0 0.012558103905862532
-0.13690942118573732 0.0 -0.1457937254842827
0.025066646712861823 0.0 -0.19842294026289545
0.16886558510040303 0.0 -0.10716535899579933
0.1902113032590306 0.0 0.06180339887498987
0.07362491053693483 0.0 0.18595529717765058
-0.09635073482034416 -0.0 0.17526133600877214
-0.1964574501457378 -0.0 0.0374762629171447
-0.15410264855515743 0.0 -0.12748479794973844
1.0781843677589415e-15 0.0 -0.2
0.1541026485551579 0.0 -0.12748479794973788
0.19645745014573768 0.0 0.03747626291714542
0.09635073482034227 0.0 0.17526133600877317
-0.07362491053693553 -0.0 0.18595529717765033
-0.19021130325903082 -0.0 0.061803398874989174
-0.16886558510040262 0.0 -0.10716535899579996
-0.025066646712861098 0.0 -0.19842294026289553
0.13690942118573787 0.0 -0.1457937254842822
0.19960534568565422 0.0 0.012558103905864685
0.11755705045849496 0.0 0.16180339887498926
-0.04973797743297234 -0.0 0.19371663222572588
-0.1809654104932047 -0.0 0.08515585831301287
-0.18096541049320417 0.0 -0.08515585831301402
-0.04973797743296973 0.0 -0.19371663222572655
0.11755705045849599 0.0 -0.1618033988749885
0.19960534568565427 0.0 -0.012558103905863411
0.13690942118573693 0.0 0.14579372548428307
-0.025066646712862364 -0.0 0.1984229402628954
-0.16886558510040253 -0.0 0.1071653589958001
-0.19021130325903046 0.0 -0.061803398874990395
-0.07362491053693433 0.0 -0.1859552971776508
0.09635073482034462 0.0 -0.17526133600877186
0.19645745014573765 0.0 -0.03747626291714556
0.15410264855515798 0.0 0.12748479794973777
-3.038362023158613e-15 -0.0 0.2
-0.15410264855515823 -0.0 0.1274847979497375
-0.19645745014573757 0.0 -0.037476262917145946
-0.09635073482034179 0.0 -0.17526133600877344
0.07362491053693469 0.0 -0.18595529717765066
0.0 0.0 -0.2
0.15410264855515787 0.0 -0.12748479794973797
0.19645745014573776 0.0 0.037476262917144974
0.09635073482034305 0.0 0.17526133600877275
-0.07362491053693568 -0.0 0.18595529717765025
-0.1902113032590307 -0.0 0.061803398874989514
-0.16886558510040303 0.0 -0.10716535899579933
-0.025066646712860758 0.0 -0.1984229402628956
0.13690942118573787 0.0 -0.1457937254842822
0.19960534568565433 0.0 0.0125581039058629
0.11755705045849468 0.0 0.16180339887498946
-0.04973797743297095 -0.0 0.19371663222572624
-0.18096541049320394 -0.0 0.08515585831301448
-0.18096541049320386 0.0 -0.08515585831301464
-0.04973797743297079 0.0 -0.1937166322257263
0.11755705045849457 0.0 -0.16180339887498954
0.19960534568565436 0.0 -0.012558103905862362
0.13690942118573746 0.0 0.14579372548428257
-0.025066646712861292 -0.0 0.19842294026289553
-0.16886558510040311 -0.0 0.10716535899579921
-0.19021130325903077 0.0 -0.06180339887498936
-0.07362491053693533 0.0 -0.18595529717765039
0.09635073482034305 0.0 -0.17526133600877275
0.19645745014573782 0.0 -0.03747626291714453
0.15410264855515776 0.0 0.12748479794973805
-5.390921838794708e-16 -0.0 0.2
-0.154102648555158 -0.0 0.12748479794973774
-0.19645745014573776 0.0 -0.03747626291714489
-0.09635073482034273 0.0 -0.17526133600877292
0.07362491053693568 0.0 -0.18595529717765025
0.19021130325903068 0.0 -0.061803398874989694
0.16886558510040253 0.0 0.10716535899580011
0.025066646712860227 0.0 0.19842294026289564
-0.13690942118573746 -0.0 0.14579372548428257
-0.19960534568565427 0.0 -0.012558103905863436
-0.11755705045849425 0.0 -0.16180339887498976
0.04973797743297183 0.0 -0.19371663222572602
0.1809654104932039 0.0 -0.08515585831301464
0.1809654104932038 0.0 0.08515585831301481
0.04973797743297025 0.0 0.19371663222572644
-0.1175570504584944 -0.0 0.16180339887498965
-0.19960534568565436 -0.0 0.012558103905862532
-0.13690942118573732 0.0 -0.1457937254842827
0.025066646712861823 0.0 -0.19842294026289545
0.16886558510040303 0.0 -0.10716535899579933
0.1902113032590306 0.0 0.06180339887498987
0.07362491053693483 0.0 0.18595529717765058
-0.09635073482034416 -0.0 0.17526133600877214
-0.1964574501457378 -0.0 0.0374762629171447
-0.15410264855515743 0.0 -0.12748479794973844
1.0781843677589415e-15 0.0 -0.2
0.1541026485551579 0.0 -0.12748479794973788
0.19645745014573768 0.0 0.03747626291714542
0.09635073482034227 0.0 0.17526133600877317
-0.07362491053693553 -0.0 0.18595529717765033
-0.19021130325903082 -0.0 0.061803398874989174
-0.16886558510040262 0.0 -0.10716535899579996
-0.025066646712861098 0.0 -0.19842294026289553
0.13690942118573787 0.0 -0.1457937254842822
0.19960534568565422 0.0 0.012558103905864685
0.11755705045849496 0.0 0.16180339887498926
-0.04973797743297234 -0.0 0.19371663222572588
-0.1809654104932047 -0.0 0.08515585831301287
-0.18096541049320417 0.0 -0.08515585831301402
-0.04973797743296973 0.0 -0.19371663222572655
0.11755705045849599 0.0 -0.1618033988749885
0.19960534568565427 0.0 -0.012558103905863411
0.13690942118573693 0.0 0.14579372548428307
-0.025066646712862364 -0.0 0.1984229402628954
-0.16886558510040253 -0.0 0.1071653589958001
-0.19021130325903046 0.0 -0.061803398874990395
-0.07362491053693433 0.0 -0.1859552971776508
0.09635073482034462 0.0 -0.17526133600877186
0.19645745014573765 0.0 -0.03747626291714556
0.15410264855515798 0.0 0.12748479794973777
-3.038362023158613e-15 -0.0 0.2
-0.15410264855515823 -0.0 0.1274847979497375
-0.19645745014573757 0.0 -0.037476262917145946
-0.09635073482034179 0.0 -0.17526133600877344
0.07362491053693469 0.0 -0.18595529717765066
0.0 0.0 -0.2
0.15410264855515787 0.0 -0.12748479794973797
0.19645745014573776 0.0 0.037476262917144974
0.09635073482034305 0.0 0.17526133600877275
-0.07362491053693568 -0.0 0.18595529717765025
-0.1902113032590307 -0.0 0.061803398874989514
-0.16886558510040303 0.0 -0.10716535899579933
-0.025066646712860758 0.0 -0.1984229402628956
0.13690942118573787 0.0 -0.1457937254842822
0.19960534568565433 0.0 0.0125581039058629
0.11755705045849468 0.0 0.16180339887498946
-0.04973797743297095 -0.0 0.19371663222572624
-0.18096541049320394 -0.0 0.08515585831301448
-0.18096541049320386 0.0 -0.08515585831301464
-0.04973797743297079 0.0 -0.1937166322257263
0.11755705045849457 0.0 -0.16180339887498954
0.19960534568565436 0.0 -0.012558103905862362
0.13690942118573746 0.0 0.14579372548428257
-0.025066646712861292 -0.0 0.19842294026289553
-0.16886558510040311 -0.0 0.10716535899579921
-0.19021130325903077 0.0 -0.06180339887498936
-0.07362491053693533 0.0 -0.18595529717765039
0.09635073482034305 0.0 -0.17526133600877275
0.19645745014573782 0.0 -0.03747626291714453
0.15410264855515776 0.0 0.12748479794973805
-5.390921838794708e-16 -0.0 0.2
-0.154102648555158 -0.0 0.12748479794973774
-0.19645745014573776 0.0 -0.03747626291714489
-0.09635073482034273 0.0 -0.17526133600877292
0.07362491053693568 0.0 -0.18595529717765025
0.19021130325903068 0.0 -0.061803398874989694
0.16886558510040253 0.0 0.10716535899580011
0.025066646712860227 0.0 0.19842294026289564
-0.13690942118573746 -0.0 0.14579372548428257
-0.19960534568565427 0.0 -0.012558103905863436
-0.11755705045849425 0.0 -0.16180339887498976
0.04973797743297183 0.0 -0.19371663222572602
0.1809654104932039 0.0 -0.08515585831301464
0.1809654104932038 0.0 0.08515585831301481
0.04973797743297025 0.0 0.19371663222572644
-0.1175570504584944 -0.0 0.16180339887498965
-0.19960534568565436 -0.0 0.012558103905862532
-0.13690942118573732 0.0 -0.1457937254842827
0.025066646712861823 0.0 -0.19842294026289545
0.16886558510040303 0.0 -0.10716535899579933
0.1902113032590306 0.0 0.06180339887498987
0.07362491053693483 0.0 0.18595529717765058
-0.09635073482034416 -0.0 0.17526133600877214
-0.1964574501457378 -0.0 0.0374762629171447
-0.15410264855515743 0.0 -0.12748479794973844
1.0781843677589415e-15 0.0 -0.2
0.1541026485551579 0.0 -0.12748479794973788
0.19645745014573768 0.0 0.03747626291714542
0.09635073482034227 0.0 0.17526133600877317
-0.07362491053693553 -0.0 0.18595529717765033
-0.19021130325903082 -0.0 0.061803398874989174
-0.16886558510040262 0.0 -0.10716535899579996
-0.025066646712861098 0.0 -0.19842294026289553
0.13690942118573787 0.0 -0.1457937254842822
0.19960534568565422 0.0 0.012558103905864685
0.11755705045849496 0.0 0.16180339887498926
-0.04973797743297234 -0.0 0.19371663222572588
-0.1809654104932047 -0.0 0.08515585831301287
-0.18096541049320417 0.0 -0.08515585831301402
-0.04973797743296973 0.0 -0.19371663222572655
0.11755705045849599 0.0 -0.1618033988749885
0.19960534568565427 0.0 -0.012558103905863411
0.13690942118573693 0.0 0.14579372548428307
-0.025066646712862364 -0.0 0.1984229402628954
-0.16886558510040253 -0.0 0.1071653589958001
-0.19021130325903046 0.0 -0.061803398874990395
-0.07362491053693433 0.0 -0.1859552971776508
0.09635073482034462 0.0 -0.17526133600877186
0.19645745014573765 0.0 -0.03747626291714556
0.15410264855515798 0.0 0.12748479794973777
-3.038362023158613e-15 -0.0 0.2
-0.15410264855515823 -0.0 0.1274847979497375
-0.19645745014573757 0.0 -0.037476262917145946
-0.09635073482034179 0.0 -0.17526133600877344
0.07362491053693469 0.0 -0.18595529717765066
0.0 0.0 -0.2
0.15410264855515787 0.0 -0.12748479794973797
0.19645745014573776 0.0 0.037476262917144974
0.09635073482034305 0.0 0.17526133600877275
-0.07362491053693568 -0.0 0.18595529717765025
-0.1902113032590307 -0.0 0.061803398874989514
-0.16886558510040303 0.0 -0.10716535899579933
-0.025066646712860758 0.0 -0.1984229402628956
0.13690942118573787 0.0 -0.1457937254842822
0.19960534568565433 0.0 0.0125581039058629
0.11755705045849468 0.0 0.16180339887498946
-0.04973797743297095 -0.0 0.19371663222572624
-0.18096541049320394 -0.0 0.08515585831301448
-0.18096541049320386 0.0 -0.08515585831301464
-0.04973797743297079 0.0 -0.1937166322257263
0.11755705045849457 0.0 -0.16180339887498954
0.19960534568565436 0.0 -0.012558103905862362
0.13690942118573746 0.0 0.14579372548428257
-0.025066646712861292 -0.0 0.19842294026289553
-0.16886558510040311 -0.0 0.10716535899579921
-0.19021130325903077 0.0 -0.06180339887498936
-0.07362491053693533 0.0 -0.18595529717765039
0.09635073482034305 0.0 -0.17526133600877275
0.19645745014573782 0.0 -0.03747626291714453
0.15410264855515776 0.0 0.12748479794973805
-5.390921838794708e-16 -0.0 0.2
-0.154102648555158 -0.0 0.12748479794973774
-0.19645745014573776 0.0 -0.03747626291714489
-0.09635073482034273 0.0 -0.17526133600877292
0.07362491053693568 0.0 -0.18595529717765025
0.19021130325903068 0.0 -0.061803398874989694
0.16886558510040253 0.0 0.10716535899580011
0.025066646712860227 0.0 0.19842294026289564
-0.13690942118573746 -0.0 0.14579372548428257
-0.19960534568565427 0.0 -0.012558103905863436
-0.11755705045849425 0.0 -0.16180339887498976
0.04973797743297183 0.0 -0.19371663222572602
0.1809654104932039 0.0 -0.08515585831301464
0.1809654104932038 0.0 0.08515585831301481
0.04973797743297025 0.0 0.19371663222572644
-0.1175570504584944 -0.0 0.16180339887498965
-0.19960534568565436 -0.0 0.012558103905862532
-0.13690942118573732 0.0 -0.1457937254842827
0.025066646712861823 0.0 -0.19842294026289545
0.16886558510040303 0.0 -0.10716535899579933
0.1902113032590306 0.0 0.06180339887498987
0.07362491053693483 0.0 0.18595529717765058
-0.09635073482034416 -0.0 0.17526133600877214
-0.1964574501457378 -0.0 0.0374762629171447
-0.15410264855515743 0.0 -0.12748479794973844
1.0781843677589415e-15 0.0 -0.2
0.1541026485551579 0.0 -0.12748479794973788
0.19645745014573768 0.0 0.03747626291714542
0.09635073482034227 0.0 0.17526133600877317
-0.07362491053693553 -0.0 0.18595529717765033
-0.19021130325903082 -0.0 0.061803398874989174
-0.16886558510040262 0.0 -0.10716535899579996
-0.025066646712861098 0.0 -0.19842294026289553
0.13690942118573787 0.0 -0.1457937254842822
0.19960534568565422 0.0 0.012558103905864685
0.11755705045849496 0.0 0.16180339887498926
-0.04973797743297234 -0.0 0.19371663222572588
-0.1809654104932047 -0.0 0.08515585831301287
-0.18096541049320417 0.0 -0.08515585831301402
-0.04973797743296973 0.0 -0.19371663222572655
0.11755705045849599 0.0 -0.1618033988749885
0.19960534568565427 0.0 -0.012558103905863411
0.13690942118573693 0.0 0.14579372548428307
-0.025066646712862364 -0.0 0.1984229402628954
-0.16886558510040253 -0.0 0.1071653589958001
-0.19021130325903046 0.0 -0.061803398874990395
-0.07362491053693433 0.0 -0.1859552971776508
0.09635073482034462 0.0 -0.17526133600877186
0.19645745014573765 0.0 -0.03747626291714556
0.15410264855515798 0.0 0.12748479794973777
-3.038362023158613e-15 -0.0 0.2
-0.15410264855515823 -0.0 0.1274847979497375
-0.19645745014573757 0.0 -0.037476262917145946
-0.09635073482034179 0.0 -0.17526133600877344
0.07362491053693469 0.0 -0.18595529717765066
0.0 0.0 -0.2
0.15410264855515787 0.0 -0.12748479794973797
0.19645745014573776 0.0 0.037476262917144974
0.09635073482034305 0.0 0.17526133600877275
-0.07362491053693568 -0.0 0.18595529717765025
-0.1902113032590307 -0.0 0.061803398874989514
-0.16886558510040303 0.0 -0.10716535899579933
-0.025066646712860758 0.0 -0.1984229402628956
0.13690942118573787 0.0 -0.1457937254842822
0.19960534568565433 0.0 0.0125581039058629
0.11755705045849468 0.0 0.16180339887498946
-0.04973797743297095 -0.0 0.19371663222572624
-0.18096541049320394 -0.0 0.08515585831301448
-0.18096541049320386 0.0 -0.08515585831301464
-0.04973797743297079 0.0 -0.1937166322257263
0.11755705045849457 0.0 -0.16180339887498954
0.19960534568565436 0.0 -0.012558103905862362
0.13690942118573746 0.0 0.14579372548428257
-0.025066646712861292 -0.0 0.19842294026289553
-0.16886558510040311 -0.0 0.10716535899579921
-0.19021130325903077 0.0 -0.06180339887498936
-0.07362491053693533 0.0 -0.18595529717765039
0.09635073482034305 0.0 -0.17526133600877275
0.19645745014573782 0.0 -0.03747626291714453
0.15410264855515776 0.0 0.12748479794973805
-5.390921838794708e-16 -0.0 0.2
-0.154102648555158 -0.0 0.12748479794973774
-0.19645745014573776 0.0 -0.03747626291714489
-0.09635073482034273 0.0 -0.17526133600877292
0.07362491053693568 0.0 -0.18595529717765025
0.19021130325903068 0.0 -0.061803398874989694
0.16886558510040253 0.0 0.10716535899580011
0.025066646712860227 0.0 0.19842294026289564
-0.13690942118573746 -0.0 0.14579372548428257
-0.19960534568565427 0.0 -0.012558103905863436
-0.11755705045849425 0.0 -0.16180339887498976
0.04973797743297183 0.0 -0.19371663222572602
0.1809654104932039 0.0 -0.08515585831301464
0.1809654104932038 0.0 0.08515585831301481
0.04973797743297025 0.0 0.19371663222572644
-0.1175570504584944 -0.0 0.16180339887498965
-0.19960534568565436 -0.0 0.012558103905862532
-0.13690942118573732 0.0 -0.1457937254842827
0.025066646712861823 0.0 -0.19842294026289545
0.16886558510040303 0.0 -0.10716535899579933
0.1902113032590306 0.0 0.06180339887498987
0.07362491053693483 0.0 0.18595529717765058
-0.09635073482034416 -0.0 0.17526133600877214
-0.1964574501457378 -0.0 0.0374762629171447
-0.15410264855515743 0.0 -0.12748479794973844