# vtk DataFile Version 2.0
test
ASCII
DATASET UNSTRUCTURED_GRID
POINTS 6400 float
0.0 0.0 0.0
-2.037499999999999 3.529053520421588 0.0
-4.074999999999998 7.058107040843176 0.0
-6.112499999999997 10.587160561264763 0.0
-8.149999999999997 14.116214081686351 0.0
-10.187499999999996 17.64526760210794 0.0
-12.224999999999994 21.174321122529527 0.0
-14.262499999999994 24.703374642951115 0.0
-16.299999999999994 28.232428163372703 0.0
-18.33749999999999 31.76148168379429 0.0
-20.374999999999993 35.29053520421588 0.0
-22.41249999999999 38.81958872463747 0.0
-24.44999999999999 42.348642245059054 0.0
-26.48749999999999 45.87769576548064 0.0
-28.524999999999988 49.40674928590223 0.0
-30.56249999999999 52.93580280632382 0.0
-32.59999999999999 56.464856326745405 0.0
-34.63749999999999 59.99390984716699 0.0
-36.67499999999998 63.52296336758858 0.0
-38.712499999999984 67.05201688801017 0.0
-40.749999999999986 70.58107040843176 0.0
-42.78749999999998 74.11012392885334 0.0
-44.82499999999998 77.63917744927494 0.0
-46.86249999999998 81.16823096969652 0.0
-48.89999999999998 84.69728449011811 0.0
-50.93749999999998 88.22633801053969 0.0
-52.97499999999998 91.75539153096128 0.0
-55.01249999999998 95.28444505138287 0.0
-57.049999999999976 98.81349857180446 0.0
-59.08749999999998 102.34255209222604 0.0
-61.12499999999998 105.87160561264764 0.0
-63.16249999999997 109.40065913306923 0.0
-65.19999999999997 112.92971265349081 0.0
-67.23749999999997 116.4587661739124 0.0
-69.27499999999998 119.98781969433398 0.0
-71.31249999999997 123.51687321475558 0.0
-73.34999999999997 127.04592673517716 0.0
-75.38749999999997 130.57498025559875 0.0
-77.42499999999997 134.10403377602034 0.0
-79.46249999999996 137.63308729644191 0.0
-81.49999999999997 141.1621408168635 0.0
-83.53749999999997 144.6911943372851 0.0
-85.57499999999996 148.22024785770668 0.0
-87.61249999999997 151.74930137812828 0.0
-89.64999999999996 155.27835489854988 0.0
-91.68749999999996 158.80740841897145 0.0
-93.72499999999997 162.33646193939305 0.0
-95.76249999999996 165.86551545981462 0.0
-97.79999999999995 169.39456898023622 0.0
-99.83749999999996 172.9236225006578 0.0
-101.87499999999996 176.45267602107938 0.0
-103.91249999999997 179.98172954150098 0.0
-105.94999999999996 183.51078306192255 0.0
-107.98749999999995 187.03983658234415 0.0
-110.02499999999996 190.56889010276575 0.0
-112.06249999999996 194.09794362318732 0.0
-114.09999999999995 197.62699714360892 0.0
-116.13749999999996 201.15605066403052 0.0
-118.17499999999995 204.6851041844521 0.0
-120.21249999999995 208.21415770487368 0.0
-122.24999999999996 211.74321122529528 0.0
-124.28749999999995 215.27226474571685 0.0
-126.32499999999995 218.80131826613845 0.0
-128.36249999999995 222.33037178656002 0.0
-130.39999999999995 225.85942530698162 0.0
-132.43749999999994 229.38847882740322 0.0
-134.47499999999994 232.9175323478248 0.0
-136.51249999999996 236.4465858682464 0.0
-138.54999999999995 239.97563938866796 0.0
-140.58749999999995 243.50469290908956 0.0
-142.62499999999994 247.03374642951115 0.0
-144.66249999999994 250.56279994993272 0.0
-146.69999999999993 254.09185347035432 0.0
-148.73749999999995 257.6209069907759 0.0
-150.77499999999995 261.1499605111975 0.0
-152.81249999999994 264.6790140316191 0.0
-154.84999999999994 268.2080675520407 0.0
-156.88749999999993 271.7371210724623 0.0
-158.92499999999993 275.26617459288383 0.0
-160.96249999999995 278.7952281133054 0.0
4.075 0.0 0.0
2.037500000000001 3.529053520421588 0.0
1.7763568394002505e-15 7.058107040843176 0.0
-2.037499999999997 10.587160561264763 0.0
-4.074999999999997 14.116214081686351 0.0
-6.112499999999996 17.64526760210794 0.0
-8.149999999999995 21.174321122529527 0.0
-10.187499999999993 24.703374642951115 0.0
-12.224999999999994 28.232428163372703 0.0
-14.262499999999992 31.76148168379429 0.0
-16.299999999999994 35.29053520421588 0.0
-18.33749999999999 38.81958872463747 0.0
-20.37499999999999 42.348642245059054 0.0
-22.41249999999999 45.87769576548064 0.0
-24.44999999999999 49.40674928590223 0.0
-26.48749999999999 52.93580280632382 0.0
-28.524999999999988 56.464856326745405 0.0
-30.56249999999999 59.99390984716699 0.0
-32.59999999999998 63.52296336758858 0.0
-34.63749999999998 67.05201688801017 0.0
-36.67499999999998 70.58107040843176 0.0
-38.71249999999998 74.11012392885334 0.0
-40.74999999999998 77.63917744927494 0.0
-42.78749999999998 81.16823096969652 0.0
-44.824999999999974 84.69728449011811 0.0
-46.862499999999976 88.22633801053969 0.0
-48.89999999999998 91.75539153096128 0.0
-50.93749999999998 95.28444505138287 0.0
-52.97499999999997 98.81349857180446 0.0
-55.012499999999974 102.34255209222604 0.0
-57.049999999999976 105.87160561264764 0.0
-59.08749999999997 109.40065913306923 0.0
-61.12499999999997 112.92971265349081 0.0
-63.162499999999966 116.4587661739124 0.0
-65.19999999999997 119.98781969433398 0.0
-67.23749999999997 123.51687321475558 0.0
-69.27499999999996 127.04592673517716 0.0
-71.31249999999997 130.57498025559875 0.0
-73.34999999999997 134.10403377602034 0.0
-75.38749999999996 137.63308729644191 0.0
-77.42499999999997 141.1621408168635 0.0
-79.46249999999996 144.6911943372851 0.0
-81.49999999999996 148.22024785770668 0.0
-83.53749999999997 151.74930137812828 0.0
-85.57499999999996 155.27835489854988 0.0
-87.61249999999995 158.80740841897145 0.0
-89.64999999999996 162.33646193939305 0.0
-91.68749999999996 165.86551545981462 0.0
-93.72499999999995 169.39456898023622 0.0
-95.76249999999996 172.9236225006578 0.0
-97.79999999999995 176.45267602107938 0.0
-99.83749999999996 179.98172954150098 0.0
-101.87499999999996 183.51078306192255 0.0
-103.91249999999995 187.03983658234415 0.0
-105.94999999999996 190.56889010276575 0.0
-107.98749999999995 194.09794362318732 0.0
-110.02499999999995 197.62699714360892 0.0
-112.06249999999996 201.15605066403052 0.0
-114.09999999999995 204.6851041844521 0.0
-116.13749999999995 208.21415770487368 0.0
-118.17499999999995 211.74321122529528 0.0
-120.21249999999995 215.27226474571685 0.0
-122.24999999999994 218.80131826613845 0.0
-124.28749999999995 222.33037178656002 0.0
-126.32499999999995 225.85942530698162 0.0
-128.36249999999995 229.38847882740322 0.0
-130.39999999999995 232.9175323478248 0.0
-132.43749999999997 236.4465858682464 0.0
-134.47499999999997 239.97563938866796 0.0
-136.51249999999996 243.50469290908956 0.0
-138.54999999999995 247.03374642951115 0.0
-140.58749999999995 250.56279994993272 0.0
-142.62499999999994 254.09185347035432 0.0
-144.66249999999997 257.6209069907759 0.0
-146.69999999999996 261.1499605111975 0.0
-148.73749999999995 264.6790140316191 0.0
-150.77499999999995 268.2080675520407 0.0
-152.81249999999994 271.7371210724623 0.0
-154.84999999999994 275.26617459288383 0.0
-156.88749999999996 278.7952281133054 0.0
8.15 0.0 0.0
6.112500000000001 3.529053520421588 0.0
4.075000000000002 7.058107040843176 0.0
2.037500000000003 10.587160561264763 0.0
3.552713678800501e-15 14.116214081686351 0.0
-2.037499999999996 17.64526760210794 0.0
-4.074999999999994 21.174321122529527 0.0
-6.112499999999994 24.703374642951115 0.0
-8.149999999999993 28.232428163372703 0.0
-10.187499999999991 31.76148168379429 0.0
-12.224999999999993 35.29053520421588 0.0
-14.26249999999999 38.81958872463747 0.0
-16.29999999999999 42.348642245059054 0.0
-18.33749999999999 45.87769576548064 0.0
-20.374999999999986 49.40674928590223 0.0
-22.412499999999987 52.93580280632382 0.0
-24.44999999999999 56.464856326745405 0.0
-26.48749999999999 59.99390984716699 0.0
-28.524999999999984 63.52296336758858 0.0
-30.562499999999986 67.05201688801017 0.0
-32.59999999999999 70.58107040843176 0.0
-34.63749999999998 74.11012392885334 0.0
-36.67499999999998 77.63917744927494 0.0
-38.712499999999984 81.16823096969652 0.0
-40.74999999999998 84.69728449011811 0.0
-42.78749999999998 88.22633801053969 0.0
-44.82499999999998 91.75539153096128 0.0
-46.86249999999998 95.28444505138287 0.0
-48.89999999999998 98.81349857180446 0.0
-50.93749999999998 102.34255209222604 0.0
-52.97499999999998 105.87160561264764 0.0
-55.012499999999974 109.40065913306923 0.0
-57.049999999999976 112.92971265349081 0.0
-59.08749999999997 116.4587661739124 0.0
-61.12499999999998 119.98781969433398 0.0
-63.16249999999997 123.51687321475558 0.0
-65.19999999999996 127.04592673517716 0.0
-67.23749999999997 130.57498025559875 0.0
-69.27499999999996 134.10403377602034 0.0
-71.31249999999996 137.63308729644191 0.0
-73.34999999999997 141.1621408168635 0.0
-75.38749999999996 144.6911943372851 0.0
-77.42499999999995 148.22024785770668 0.0
-79.46249999999996 151.74930137812828 0.0
-81.49999999999996 155.27835489854988 0.0
-83.53749999999995 158.80740841897145 0.0
-85.57499999999996 162.33646193939305 0.0
-87.61249999999995 165.86551545981462 0.0
-89.64999999999995 169.39456898023622 0.0
-91.68749999999996 172.9236225006578 0.0
-93.72499999999995 176.45267602107938 0.0
-95.76249999999996 179.98172954150098 0.0
-97.79999999999995 183.51078306192255 0.0
-99.83749999999995 187.03983658234415 0.0
-101.87499999999996 190.56889010276575 0.0
-103.91249999999995 194.09794362318732 0.0
-105.94999999999995 197.62699714360892 0.0
-107.98749999999995 201.15605066403052 0.0
-110.02499999999995 204.6851041844521 0.0
-112.06249999999994 208.21415770487368 0.0
-114.09999999999995 211.74321122529528 0.0
-116.13749999999995 215.27226474571685 0.0
-118.17499999999994 218.80131826613845 0.0
-120.21249999999995 222.33037178656002 0.0
-122.24999999999994 225.85942530698162 0.0
-124.28749999999994 229.38847882740322 0.0
-126.32499999999993 232.9175323478248 0.0
-128.36249999999995 236.4465858682464 0.0
-130.39999999999995 239.97563938866796 0.0
-132.43749999999994 243.50469290908956 0.0
-134.47499999999994 247.03374642951115 0.0
-136.51249999999993 250.56279994993272 0.0
-138.54999999999993 254.09185347035432 0.0
-140.58749999999995 257.6209069907759 0.0
-142.62499999999994 261.1499605111975 0.0
-144.66249999999994 264.6790140316191 0.0
-146.69999999999993 268.2080675520407 0.0
[...]
POINT_DATA 6400
VECTORS vector float
